# vtk DataFile Version 2.0
sampleSurface
ASCII
DATASET POLYDATA
POINTS 2021 float
-0.500032 0 0.11501 -0.499951 3.38813e-21 0.0392727 -0.789037 8.47033e-21 0.120673 -0.500013 -1.35525e-20
0.193965 1.00003 0 0.0485099 1.00003 0 0.0478584 0.475202 0 0.0353615
0.250044 1.41878e-20 0.0305359 0.2506 -5.42101e-20 0.117067 0.251301 0 0.203885 0.364989
0 0.203772 1.75002 0 0.113255 1.75002 0 0.0564279 2.50001 6.89146e-18
0.059229 2.21354 0 0.250758 2.50001 0 0.252875 3.25001 -3.47927e-17 0.0598775
3.25001 -1.69407e-21 0.253888 4.00001 5.60566e-18 0.0599857 4 0 0.253986 4.75
-1.79088e-17 0.0599988 4.75 8.47033e-22 0.253998 5.5 -2.79246e-17 0.0599999 5.5 -4.23516e-22
0.253999 6.25 1.01187e-17 0.06 6.25 0 0.254 7 2.93732e-17 0.06
7 0 0.254 7.75 -2.65294e-17 0.06 7.75 0 0.254 8.5
1.8923e-17 0.06 8.5 0 0.254 9.25 -2.88552e-17 0.06 9.25 -5.29396e-23
0.254 10 -2.64698e-23 0.254 10 0 0.06 -4.24997 0 0.0599042
-5 0 0.0599861 -5 0 0.253986 -4.24997 0 0.253912 -3.49995
0 0.0593815 -3.49994 0 0.253441 -2.74993 0 0.0570188 -2.74991 0
0.251316 -1.99991 0 0.0492276 -1.99987 0 0.242776 -1.24992 -1.69407e-21 0.03
-1.24985 1.23328e-17 0.222327 -1.24989 3.38813e-21 0.125756 -0.874924 2.08116e-17 0.03 -0.874929
0 0.122356 -0.124951 -8.47033e-22 0.03 -0.499941 0 0.03 -0.124922 -8.47033e-22
0.0385291 1.00021 0 0.231242 0.625368 0 0.203537 0.25004 -2.11758e-22 0.03
1.75003 0 0.247334 1.92873 1.69407e-21 0.441438 2.50001 0 0.447397 3.25
-1.69407e-21 0.447898 4 0 0.447986 4.75 0 0.447997 5.5 -4.23516e-22
0.447999 6.25 4.23516e-22 0.447999 7 0 0.448 7.75 -1.05879e-22 0.448
8.5 0 0.448 9.25 0 0.448 10 -2.64698e-23 0.448 -5
-8.47033e-22 0.447985 -4.24997 0 0.447919 -3.49993 0 0.4475 -2.74988 0
0.445609 -1.9998 6.77626e-21 0.437758 -1.24969 1.61411e-17 0.417681 -1.24976 -6.77626e-21 0.31973
-0.875161 7.70461e-18 0.216228 -0.875403 0 0.312476 -0.499924 -8.74138e-19 0.250039 -0.312433
0 0.250037 -0.312436 0 0.200025 -0.499924 0 0.200026 0.250062 3.38813e-21
0.24921 0.250039 -1.69407e-21 0.250046 0.250032 0 0.300069 0.437526 3.05948e-18 0.300066
0.625026 0 0.30005 1.00072 -8.23994e-18 0.326497 1.00196 0 0.423 1.75013
0 0.439575 1.75013 1.77877e-20 0.448245 1.00135 0 0.537141 1.00002 0
0.61834 1.74999 2.71051e-20 0.633055 2.49999 -3.38813e-21 0.641448 3.25 0 0.641907
4 -1.69407e-21 0.641985 4.75 -8.47033e-22 0.641996 5.5 -4.23516e-22 0.641998 6.25
0 0.641999 7 0 0.641999 7.75 0 0.642 8.5 5.29396e-23
0.642 9.25 -5.29396e-23 0.642 10 0 0.642 -5 0 0.641985
-4.24997 -1.69407e-21 0.641926 -3.49993 0 0.641557 -2.74988 0 0.639897 -1.99989
6.77626e-21 0.63382 -1.25099 2.55465e-18 0.614606 -1.25 -2.71051e-20 0.515981 -0.878244 0
0.50789 -0.875961 2.71051e-20 0.459694 -0.875609 0 0.410432 -0.498432 0 0.400603
-0.498071 -1.70762e-18 0.413126 -0.450805 0 0.413349 -0.45095 0 0.400955 0.250009
1.89735e-19 0.412703 0.25 2.71051e-20 0.425212 0.296872 1.00289e-18 0.425187 0.343754 -2.71051e-20
0.425153 0.343763 0 0.400146 0.250006 0 0.400175 1.00162 1.41488e-17 0.520353
-2 4.23516e-22 0.820145 -2.09502 -2.11758e-22 0.830091 -2 0 0.829497 -1.25123
0 0.813251 -1.25126 0 0.713737 -1.25101 6.77626e-21 0.62198 1.00059 0
0.714169 1.00094 0 0.809205 1.75018 0 0.82775 2.5 0 0.835521
3.25 0 0.835917 4 -1.69407e-21 0.835986 4.75 -8.47033e-22 0.835996 5.5
0 0.835998 6.25 0 0.835999 7 0 0.835999 7.75 0
0.836 8.5 0 0.836 9.25 0 0.836 10 0 0.836
-5 -8.47033e-22 0.835986 -4.24997 0 0.835935 -3.49995 0 0.835616 -2.74991
0 0.83419 -0.970118 0 0.703382 -0.87455 0 0.699864 -0.874264 -2.71051e-20
0.649852 -0.874033 -2.71051e-20 0.599873 -0.49698 0 0.599585 -0.497345 -9.21572e-19 0.612046
-0.450014 0 0.611892 -0.44938 2.71051e-20 0.599454 -2.00002 0 0.84097 -1.84639
-3.38813e-21 1.02215 -1.25185 0 1.01276 -0.896512 -3.38813e-21 0.900668 -0.908183 6.77626e-21
0.801076 -0.904022 -1.86347e-20 1.00093 0.624925 0 0.799916 0.249931 0 0.799891
0.249978 0 0.899916 0.249997 0 0.999939 0.999987 0 0.999957 1.75061
-2.1684e-19 1.02409 2.50003 0 1.0296 3.25 -1.69407e-21 1.02993 4 0
1.02999 4.75 0 1.03 5.5 0 1.03 6.25 2.11758e-22 1.03
7 0 1.03 7.75 0 1.03 8.5 5.29396e-23 1.03 9.25
0 1.03 10 0 1.03 -5 0 1.02999 -4.24998 0
1.02994 -3.49996 -8.47033e-22 1.02968 -2.74996 0 1.02849 -2.00026 0 1.02458
-0.87482 0 0.799893 -0.87491 0 0.899919 -0.49993 0 0.799862 -0.499958
7.6233e-19 0.849889 -0.312476 0 0.849885 -0.312472 0 0.799853 -1.25001 8.04681e-21
1.19601 -0.499979 5.29396e-23 1.10737 -0.731886 2.11758e-22 1.19997 -0.499981 0 1.19997
-0.124987 0 0.999933 -0.477759 -5.29396e-23 0.999933 -0.487556 -1.45584e-22 1.09995 0.250008
0 1.19997 1 0 1.19997 1.7507 0 1.22203 2.50003 -1.35525e-20
1.22368 3.25 0 1.22394 4 0 1.22399 4.75 4.23516e-22 1.224
5.5 0 1.224 6.25 2.11758e-22 1.224 7 0 1.224 7.75
1.05879e-22 1.224 8.5 0 1.224 9.25 0 1.224 10 2.64698e-23
1.224 -5 4.23516e-22 1.22399 -4.24999 -4.23516e-22 1.22395 -3.49998 0 1.22374
-2.75001 0 1.22279 -2.00077 0 1.21965 -1.24997 4.23516e-22 1.19997 -0.499969
-5.29396e-23 0.999933 -0.874942 0 0.999936 -0.499979 -1.32349e-23 1.09995 -2.75001 0
1.36967 -3.18711 4.23516e-22 1.41751 -2.75001 4.23516e-22 1.4171 -2.00072 3.38813e-21 1.29692
-2.00065 0 1.41474 -1.25823 6.35275e-21 1.40014 -0.980416 0 1.39998 -0.499986
0 1.39998 0.250009 0 1.39998 1 0 1.39998 1.75054 0
1.41682 2.50002 -1.35525e-20 1.41776 3.25 0 1.41796 4 4.23516e-22 1.41799
4.75 0 1.418 5.5 0 1.418 6.25 0 1.418 7
0 1.418 7.75 0 1.418 8.5 0 1.418 9.25 0
1.418 10 0 1.418 -5 0 1.41799 -4.24999 0 1.41797
-3.49999 -4.23516e-22 1.41781 -1.24998 0 1.39998 -2.80392 1.32349e-23 1.61143 -2.75
-1.32349e-23 1.6114 -2.0003 0 1.60983 -1.25396 2.64698e-23 1.60004 -1.12789 2.64698e-23
1.59999 -0.49999 1.05879e-22 1.59999 0.250008 0 1.59999 1.00001 4.23516e-22 1.59999
1.75038 0 1.61122 2.50002 0 1.61184 3.25 -4.23516e-22 1.61197 4
-4.23516e-22 1.61199 4.75 0 1.612 5.5 0 1.612 6.25 0
1.612 7 0 1.612 7.75 5.29396e-23 1.612 8.5 2.64698e-23 1.612
9.25 -1.32349e-23 1.612 10 -1.32349e-23 1.612 -5 0 1.61199 -4.24999
0 1.61198 -3.49999 0 1.61187 -1.24999 0 1.59999 -2.75 -1.32349e-23
1.63714 -2.64195 -2.11758e-22 1.80559 -2.00012 -8.47033e-22 1.80492 -1.25741 0 1.80004
-1.19082 -7.94093e-23 1.8 -0.499992 1.05879e-22 1.79999 0.250006 2.11758e-22 1.79999 1
0 1.8 1.75023 0 1.80561 2.50001 3.38813e-21 1.80592 3.25 0
1.80599 4 0 1.806 4.75 2.11758e-22 1.806 5.5 0 1.806
6.25 0 1.806 7 0 1.806 7.75 0 1.806 8.5
2.64698e-23 1.806 9.25 0 1.806 10 0 1.806 -5 0
1.806 -4.25 -2.11758e-22 1.80599 -3.49999 0 1.80594 -2.75 -1.05879e-22 1.8057
-1.24999 0 1.8 -2 -4.76456e-22 1.98532 -1.20969 -1.65436e-23 2 -0.499993
0 2 0.250006 0 2 1 0 2 1.75 0
2 2.5 0 2 3.25 0 2 4 0 2
4.75 -1.05879e-22 2 5.5 0 2 6.25 0 2 7
5.29396e-23 2 7.75 0 2 8.5 0 2 9.25 0
2 10 -1.32349e-23 2 -5 2.21817e-18 2 -4.25 1.05879e-22 2
-3.49999 0 2 -2.74999 0 2 -1.99999 -5.29396e-23 2 -1.24999
3.30872e-24 2 0.0956945 -5.42101e-20 0.203879 0.0632748 0 0.203876 0.0625511 0
0.250042 -0.403589 6.77626e-21 0.40138 -0.405779 7.7927e-19 0.38799 -0.406379 -6.77626e-21 0.375196
-0.499567 -1.35525e-20 0.375265 0.250006 -6.50521e-19 0.375144 0.156247 0 0.375155 0.156237
9.41901e-19 0.400212 0.203129 0 0.400201 0.249796 0 0.59991 0.249852 -1.0842e-19
0.587433 0.202953 0 0.587417 0.202888 6.50521e-19 0.599901 0.625121 -6.77626e-21 0.499953
0.717439 6.77626e-21 0.504955 0.625095 6.77626e-21 0.475379 0.343596 1.0842e-19 0.599918 0.343639
0 0.574939 0.296781 0 0.574964 0.249926 0 0.574977 0.62499 -4.2826e-18
0.549927 0.624917 4.55365e-18 0.599925 0.203133 0 0.412725 -0.449046 0 0.587135
-0.496581 5.42101e-20 0.587161 0.625036 -9.32414e-18 0.40006 0.625067 1.13164e-18 0.450032 0.249704
0 0.624881 0.155871 0 0.599866 0.155839 1.95156e-18 0.624853 0.249886 1.35525e-20
0.749873 0.062411 0 0.749846 0.0624478 -4.26227e-18 0.799869 -0.312472 0 0.749804
-0.499901 -3.38813e-21 0.749824 -0.691227 0 0.30453 -0.499912 3.02221e-18 0.300065 -0.875784
-3.11708e-18 0.361353 -0.592465 -2.71051e-20 0.40036 -0.499854 0 0.350135 -0.687111 1.35525e-20
0.350117 -0.68656 -2.71051e-20 0.40021 0.437526 -1.35525e-20 0.400108 0.437522 6.77626e-21 0.350086
0.250015 -2.51399e-18 0.35011 0.625027 3.38813e-21 0.350064 -0.592287 0 0.425286 -0.498048
0 0.425444 -0.873902 5.42101e-18 0.54992 -0.496663 0 0.574746 -0.591532 0
0.574798 -0.591729 0 0.599734 -0.149108 0 0.406489 -0.149477 -5.29396e-23 0.403592
-0.149678 0 0.406489 -0.451876 -2.1684e-18 0.499977 -0.451579 0 0.487563 -0.498366
0 0.487552 -0.498515 -1.0842e-19 0.499993 0.437553 0 0.450075 0.437532 -6.07153e-18
0.425113 0.254621 -1.25361e-19 0.496697 0.26485 -5.42101e-20 0.498023 0.264831 0 0.496529
0.254636 -2.30393e-19 0.49668 0.570241 0 0.499932 0.437665 -2.71051e-20 0.474991 0.437859
-2.71051e-20 0.49988 0.437372 -1.0842e-19 0.599915 0.249722 3.25261e-19 0.649874 0.43732 -5.42101e-20
0.649899 0.624872 0 0.649914 0.624883 -3.95734e-18 0.699913 0.43734 6.83047e-18 0.699894
0.249817 0 0.699869 -0.592227 0 0.624743 -0.498071 -2.71051e-20 0.624658 -0.499769
6.77626e-21 0.69979 -0.687025 0 0.699824 -0.150854 -1.03677e-18 0.599678 -0.151059 -6.77626e-21
0.605522 -0.127339 6.77626e-21 0.605681 -0.127867 0 0.599582 -0.406139 -4.40457e-20 0.699754
-0.406113 0 0.674749 -0.499634 0 0.674774 -0.18433 -4.23516e-22 0.674527 -0.163626
-4.23516e-22 0.678958 -0.165125 0 0.674537 -0.171868 4.23516e-22 0.674524 -0.14924 3.34737e-19
0.400169 -0.125737 0 0.400165 -0.12551 0 0.393854 -0.149076 -2.11758e-22 0.393877
-0.499925 -2.61564e-18 0.325088 -0.406241 0 0.325087 -0.4062 0 0.300069 -0.124901
0 0.300062 -0.218633 -3.27294e-18 0.299673 -0.218596 1.35525e-20 0.324664 -0.124851 0
0.325085 -0.126061 7.86047e-19 0.406473 -0.0785222 1.30782e-18 0.400166 -0.126118 3.38813e-21 0.41275
-0.0785648 0 0.412729 0.240678 1.0842e-18 0.500153 0.252614 -2.1684e-19 0.498317 0.252386
1.0842e-19 0.496231 0.241035 0 0.496114 0.228892 -1.35525e-20 0.496204 0.228835 6.77626e-21
0.498715 0.229819 2.71051e-20 0.500074 0.25248 0 0.499935 0.240657 -1.6263e-19 0.500957
0.264863 0 0.500154 0.264689 0 0.500951 0.437443 0 0.549896 0.437406
[...]
POINT_DATA 2021
FIELD attributes 2
p 1 2021 float
2.01538 1.44315 2.37357 4.36978 0.0574907 0.0553792 -4.20396 -6.04152 -7.68949 -6.16591 -4.32228
0.495549 0.463388 0.111243 0.326078 0.174443 0.00297693 0.0268009 0.00522371 0.0141198 0.00947916
0.0153949 0.00479589 0.00982947 0.000213262 0.00447622 -0.00132376 0.00231295 -0.000996744 0.00214047 -0.000419447
0.00214826 0.000568063 0.00333547 0 0 0.615395 0.610938 0.610786 0.615109 0.636287
0.635392 0.70628 0.703146 0.928436 0.925132 1.64311 1.76457 1.78009 2.23904 2.47984
-4.05189 1.37303 -4.10463 0.648794 -0.11358 -6.0313 0.571407 0.441791 0.189337 0.0288818
0.00702998 0.00924073 0.00544468 0.000944821 -0.000663854 -0.000300674 -0.000413422 0.00265616 0 0.610354
0.61434 0.632978 0.694107 0.903985 1.95832 2.03121 3.13138 3.87578 7.33285 -3.28682
-1.04215 4.58983 -5.7322 -5.72437 -2.26921 0.332928 0.822293 1.0277 0.923621 0.520707
0.516508 0.848259 0.881825 0.426855 0.166777 0.0226131 0.0020184 0.00630037 0.00420996 0.000347753
-0.000996648 -0.000438523 -0.000271021 0.00285361 0 0.609664 0.613151 0.629341 0.681413 0.863496
1.85188 2.13793 5.13676 5.59121 4.82873 32.5853 36.47 52.0428 45.9994 4.72826
4.88033 3.37144 3.40575 2.67074 4.06275 0.841317 0.809412 0.788937 0.806697 1.39796
1.78708 1.84709 0.991225 0.481523 0.349221 0.127198 0.0131995 0.000244053 0.00682883 0.0061061
0.00259232 0.00120077 0.00152653 0.00210446 0.00351757 0 0.608789 0.61167 0.624907 0.666528
3.25331 3.75174 4.68415 4.76238 34.3604 32.6985 44.6213 50.7633 0.802864 0.782542
0.940997 1.70342 2.62802 1.14306 0.0793242 -4.87609 -5.29926 -2.74786 -0.228432 0.190781
0.0729294 -0.00581604 -0.0110774 -0.000999198 0.000909009 -0.00112075 -0.00164368 -0.000750855 0.000355197 0.00130675
0 0.60782 0.610048 0.620078 0.650541 0.74151 2.74756 1.73316 5.18688 3.29167
0.555465 -0.679567 0.699035 0.311502 0.313643 0.143476 -1.70948 0.673394 0.281972 -0.974019
-0.39372 0.0977521 0.064467 -0.00322603 -0.0110839 -0.00110412 0.00148137 -0.000302409 -0.000819656 3.76615e-05
0.00108508 0.00157289 0 0.606855 0.608438 0.61523 0.63441 0.678016 0.693799 0.823422
1.15995 0.32497 0.623179 0.614455 0.619552 0.657755 0.626855 0.567782 0.384947 0.0602585
-0.564179 -0.377559 0.0460428 0.0590039 -0.00462563 -0.0153036 -0.00443552 -0.000739103 -0.00203585 -0.00230731
-0.00128084 -0.000112025 0.000453133 0 0.605992 0.606982 0.610807 0.567126 0.607776 0.607815
0.591769 0.49663 0.428045 0.0779551 -0.435129 -0.348718 -0.00111923 0.0477918 -0.00815439 -0.0189352
-0.00651386 -0.00173305 -0.0026351 -0.00272406 -0.001596 -0.000358846 0.000278702 0 0.605314 0.60581
0.607263 0.496124 0.606836 0.596251 0.571447 0.458977 0.428619 0.0873157 -0.364862 -0.332813
-0.0276211 0.0427222 -0.0085371 -0.0200073 -0.00726355 -0.00214995 -0.00295804 -0.00298275 -0.00180536 -0.000539854
0.000144222 0 0.604877 0.605029 0.604921 0.600426 0.457853 0.565176 0.426472 0.0904189
-0.342491 -0.327673 -0.0359071 0.0411993 -0.00862629 -0.0204213 -0.00762167 -0.00237998 -0.00311942 -0.00308191
-0.00186085 -0.00057503 0.000130258 8.22568e-05 0.604723 0.604747 0.604078 0.597907 0.564666 0.445555
-10.2831 -11.1403 -11.7918 70.5115 60.1058 43.9169 29.6864 2.91027 1.68144 4.37837
5.03277 4.14704 4.56684 6.20609 5.41506 2.01909 1.73017 2.13271 2.96353 3.67903
3.37711 3.98486 2.24071 1.90763 6.00882 56.2529 39.4482 1.92547 2.24958 3.64423
4.76782 2.18298 -4.52051 -11.1969 -9.83869 -3.19917 8.46133 7.00878 11.913 4.7525
17.4699 20.8318 9.14161 10.5217 2.56538 1.48897 0.984159 1.64747 19.7365 36.9257
5.6147 39.6487 20.3323 18.8219 -58.8319 -58.6055 -58.8287 68.4728 68.3864 47.5713
44.8047 3.3814 3.08659 -5.01803 0.334261 0.182876 -5.0676 2.57897 3.95273 3.92582
2.85424 1.83545 1.75187 1.61928 0.945008 0.755672 -1.35446 17.0071 28.1065 13.2942
7.27777 -56.6758 -56.4581 -58.9077 -58.8244 13.8701 19.1067 18.483 -46.3193 -42.756
-44.4359 -45.1743 -58.3419 -57.6104 -57.6041 -57.7438 16.6232 15.9064 12.0207 -29.3599
-27.9569 -45.3513 -37.0578 -58.9591 -46.0276 -58.7918 -48.1699 10.9805 4.28036 10.4852
11.8272 9.07371 9.35157 9.64127 4.50221 11.1045 0.892458 0.722692 3.71976 3.47393
4.05237 4.3145 47.763 68.3543 -58.9629 -56.6088 6.48767 11.114 -51.4139 -52.696
-58.5471 4.45552 6.28083 6.44124 6.47057 -31.4357 -40.0452 -49.4838 -29.8202 64.4224
60.8079 41.6682 41.4163 -44.0794 -56.116 -11.5281 -8.59232 -0.456468 -24.5343 -42.4437
42.9894 44.3155 64.3132 66.4855 -51.7972 -49.9325 -50.7038 0.338102 -9.62453 -12.6808
-11.6757 -21.6593 -24.8397 -57.949 44.0501 21.8582 22.1516 11.7067 12.024 12.1963
13.1479 22.0279 44.5123 10.7998 12.4632 11.904 13.2444 -58.7566 -58.7462 -58.2232
-58.2106 -57.5558 -56.9303 -56.5687 45.8304 66.8439 -58.4157 -58.6682 -59.0695 -58.3239
-29.8393 -35.0693 -32.7909 -13.7567 -1.62436 -4.92937 -50.6572 -50.3187 -58.1043 -13.1709
0.0876462 0.0136336 -13.3957 -58.3729 -56.8696 -51.3309 -12.5163 -10.2476 -3.74434 1.51435
-7.2841 -5.49208 -18.4759 -38.2096 -41.3346 -36.2462 -52.1499 -53.1932 -52.9089 -4.00948
-17.3748 -18.1136 -4.6152 -56.0881 -51.915 -56.1033 -3.46838 -9.15981 -16.4452 -11.6736
67.5389 46.8759 -54.33 -54.5029 -56.8806 -56.7445 -56.2675 -53.8058 -57.1737 -53.0998
-56.0225 -59.0462 -59.1748 -59.2181 -32.2122 -77.1746 -96.2122 -101.191 -103.526 -103.092
-48.7631 -50.1694 -54.2062 -48.2576 -49.7695 -97.9985 -99.3727 -71.256 -34.246 -58.5525
-59.3731 -59.046 -56.3463 -57.2367 -57.3433 -57.267 -57.6653 7.0716 5.99703 8.88732
-56.075 -55.7944 -56.0109 -55.4784 -55.5942 -55.9235 -56.3431 -55.2136 -55.1975 2.02139
1.82023 0.695609 1.19108 4.26344 4.62505 1.4014 -55.9279 -56.3781 -57.0402 5.77393
6.60772 2.76399 0.866073 3.12031 -32.0839 -38.1015 -37.3592 -31.697 -54.6913 -55.1827
-58.0764 -57.7446 -55.0462 -55.8727 -38.9036 -43.2612 -43.0429 -36.8925 -46.1173 -50.182
-53.3371 -53.4829 -52.3018 123.575 131.432 146.779 146.867 -58.2174 -56.2623 -56.5379
-57.9081 -57.7699 4.40425 2.13206 3.02129 4.60634 -9.68163 -3.87878 -5.84339 -8.87652
-11.7562 -39.0645 -36.8236 -25.5221 -27.2894 -32.1056 -39.087 -24.8948 -24.9081 31.0898
41.265 52.1108 37.9268 23.0719 19.192 34.2103 26.1098 0.668431 0.826586 1.9867
34.1074 24.9278 17.1489 22.264 2.88156 3.81314 4.46944 4.58374 3.75318 6.68949
6.80781 4.66091 -9.37325 -8.26384 -1.38202 -10.2466 14.6876 9.14847 10.8241 -54.7488
-56.9832 -57.1149 -54.9453 -82.7143 -81.4346 -84.6727 -47.9617 -12.7268 -18.3566 -27.6615
-56.0787 -52.8732 -55.4111 -56.51 -74.0396 -73.7854 -58.3746 -59.6275 -49.6074 -47.8996
-50.2016 -50.3302 3.75568 3.81254 -0.630887 5.9888 5.64736 4.66851 5.33604 5.71714
6.13061 -54.1895 -53.7528 -68.8298 -68.0457 79.0351 94.1378 85.7391 112.134 106.447
88.8644 90.1765 161.866 164.199 153.382 121.651 98.428 104.365 97.3256 117.666
-12.9071 -26.966 -31.2932 -5.87278 -26.1432 -52.1133 -41.7398 -6.34443 93.7123 101.213
86.7999 78.2672 96.6995 88.3934 107.6 148.457 158.213 167.405 165.144 106.629
102.904 159.628 -32.5566 -7.91995 -38.2295 -28.4773 -47.7002 140.217 140.087 115.611
110.591 110.255 115.518 139.613 138.997 108.146 167.243 170.849 172.017 172.309
173.717 186.653 186.842 174.824 173.276 -33.0368 -40.1599 -32.9908 -56.4823 -50.8607
-42.6891 -41.936 -40.6696 -25.618 2.73285 -2.63 -0.679551 173.395 175.339 187.194
172.366 186.51 187.153 175.226 172.169 179.596 181.761 170.111 168.879 179.895
167.881 171.097 182.419 -52.5555 -37.6792 -36.4356 -55.7746 -55.7879 -55.9222 -36.258
-46.124 -36.3804 -36.8804 -45.7615 -45.7263 -3.31455 -9.15546 -24.9882 -25.0519 -32.9684
-43.5878 -32.9757 -32.6541 -42.9946 -21.2388 -18.9495 -20.6738 115.427 140.146 138.128
139.039 114.683 109.31 170.036 169.911 170.479 167.743 136.401 108.399 113.577
137.152 -57.2644 -54.3574 -52.9396 -52.7686 -55.764 -46.0906 90.2106 93.4986 78.7754
-15.0577 -6.32954 -6.86022 -20.9874 54.4849 56.3438 69.9549 73.622 -55.9114 -55.1385
-55.4409 -55.9066 -57.085 -57.3192 -57.4631 -57.5817 -56.2719 -56.3871 -56.0075 -56.0829
-135.234 -109.572 -78.0019 -95.7607 -98.1265 -99.2174 -99.2098 -83.3021 -78.9537 -92.5225
-70.0508 -84.66 -132.363 -136.146 -128.203 -96.1761 -96.9721 -54.9156 -54.3894 -55.1079
-56.1717 -56.459 -54.007 -53.9469 6.74833 7.27162 13.6874 16.2983 13.7834 -50.9598
-50.2352 -45.7769 -46.0035 -46.2397 -46.0379 -46.0111 -45.7929 12.9273 12.6622 16.8676
8.29883 8.10604 9.66556 10.1464 10.1708 8.51852 7.3345 8.10416 12.4239 15.7424
13.7475 0.825558 -0.814608 -3.00075 7.04368 6.21678 5.09508 6.44221 7.15195 -52.4722
-53.378 -56.3829 -55.6776 -48.6017 -49.6075 13.5752 15.5291 16.9223 -46.9012 -49.8025
-49.9345 -46.6174 -45.7747 11.3444 11.0864 11.1292 9.54378 6.84297 -7.02906 -5.79115
5.46849 6.30279 6.2669 -48.477 -48.8404 146.527 148.552 140.975 137.01 113.433
118.371 125.775 121.262 184.616 185.892 182.194 178.437 -55.8022 -55.7267 -53.1259
-53.04 169.641 183.361 185.06 172.999 174.456 186.576 171.033 182.146 169.628
179.279 -16.8226 -19.1381 -23.8889 -28.2051 -26.7852 -22.9207 -8.77683 -3.44687 -3.87733
-9.07201 -14.1058 -13.7515 -1.02648 -9.05995 -9.92947 -15.0088 -18.1443 -8.19879 -8.95884
-24.9505 -20.217 -9.66117 -0.784193 -3.05353 6.01683 -3.50546 5.99951 6.75685 3.37442
3.91084 4.63012 4.19327 7.66887 6.04648 3.91954 5.77473 -18.9184 -16.0092 -26.3428
-21.4831 -56.474 -58.2263 -58.8393 -58.7038 3.00364 3.07247 5.00846 5.49388 4.25329
4.84928 -14.5276 -40.2714 -57.2147 -65.4334 -53.2193 -31.8547 -59.0255 10.6792 10.1384
10.1615 -2.44381 0.19544 11.9758 17.241 9.5175 23.5884 20.494 10.3858 1.65829
6.80717 8.30253 13.1106 11.5457 6.78864 -53.414 -44.0695 -49.9634 -13.1247 -43.9713
-25.039 -60.7025 -83.8291 108.802 92.8869 106.288 108.481 112.83 111.98 172.891
172.015 173.266 172.581 171.285 185.97 185.971 185.207 -58.0788 -58.2917 174.487
-56.2623 -56.2602 -57.1753 -57.3413 -57.0413 -56.0409 -148.934 -135.924 -135.829 -132.4
-156.529 -135.751 -132.254 -132.567 -119.424 -114.881 -80.1579 -73.1453 -73.4753 -70.8543
-119.328 -121.034 -56.8331 -55.8162 -54.7261 -57.1932 9.44723 7.09541 10.6354 8.17923
10.9536 11.9806 12.3537 13.3146 14.1033 -55.2896 -54.3547 -56.4113 -55.2215 -53.2632
-52.9975 -53.1142 -55.0497 -5.99326 -0.488559 -1.43913 -4.61747 9.19945 9.57661 6.81284
5.84655 7.55754 9.55284 8.79527 6.70664 1.3656 8.19269 7.09343 6.92365 8.62692
10.3566 9.17193 11.9958 11.2837 -54.7607 -55.192 -55.3419 -55.4685 -55.6176 -55.4656
-54.9634 -52.9876 -54.3017 -54.3102 -54.3237 -51.2255 -52.6155 -73.8927 -73.0993 -57.7351
-60.0494 -77.681 -68.5241 -77.7664 -124.317 -128.949 -136.571 -79.6302 -97.6903 -107.623
-80.4858 -99.046 128.804 113.647 148.564 151.785 -54.7256 -53.9572 -55.0635 -55.0424
-53.2512 143.895 167.88 146.154 -49.1435 -48.3011 -48.7475 -49.5271 -49.3449 -49.3623
-49.2889 -47.7706 -8.04984 -9.34554 -11.8904 -10.9939 -14.8173 -17.0197 -19.1755 -16.9464
-17.8856 74.8067 85.4993 -58.6979 51.1955 76.52 64.9948 75.7035 61.1664 14.1996
11.407 45.7258 36.6984 8.37524 9.20863 3.64289 5.3111 5.12003 7.8251 6.73176
7.10048 7.48634 8.29962 -52.9331 -52.4924 -52.2008 -52.7869 -1.0377 -0.521551 -1.09887
2.25804 5.70368 5.1485 7.08687 6.52441 -51.1083 -51.5306 -51.2536 138.235 136.321
171.198 184.789 189.094 189.381 186.871 185.347 -55.8328 -55.5381 -55.8643 -55.6978
-53.2562 -45.7164 -46.541 -47.1636 -46.3698 -46.7029 -47.9984 -56.1146 -56.1393 -56.7325
-57.41 -57.1152 -57.0995 -57.262 -56.8769 -55.2685 -116.02 -111.615 -134.248 -110.641
-133.914 -122.176 -123.557 -133.268 -56.2162 -57.5653 -55.9769 -54.7599 13.6403 12.2757
11.2507 12.4224 12.6637 13.3055 -36.823 -36.3217 -31.5345 -30.9768 -41.81 -42.3612
-46.5282 -46.127 -51.1649 -51.2148 -45.6253 -52.2736 -51.9131 -6.19317 -0.95181 -11.4658
0.653075 2.09374 8.00342 7.53372 7.85891 4.2775 10.6951 7.34345 8.76156 10.2683
10.9112 10.8019 10.9445 12.7061 12.3797 2.36832 12.4452 14.8363 16.01 3.88978
3.4 3.13855 3.81692 -59.0605 -58.1916 -53.0023 -56.6367 -44.7204 -44.164 -40.1286
-44.4916 -45.9275 -49.9924 -51.2249 -49.622 -49.8543 -49.6033 -47.1739 -52.2766 -47.3289
4.20253 -48.3015 -49.615 141.052 131.871 129.457 129.521 129.9 114.431 107.023
188.669 188.142 187.149 -50.811 -51.1438 -1.39046 -0.824856 0.210563 -29.6919 -30.5902
186.059 186.895 180.372 183.33 181.875 181.505 -33.2121 -29.0539 -3.14859 -7.80845
-5.91873 -3.19472 -24.8211 -13.6846 -10.2494 -13.4603 -19.9019 -4.5772 80.8928 56.5293
60.8507 21.0732 21.4376 68.0233 110.714 10.0935 7.15362 -2.23337 -2.48934 6.8055
7.6018 7.89531 6.07857 6.53261 24.5282 16.2824 -0.453943 19.738 -1.77366 3.47168
8.15134 8.07623 68.025 110.215 -54.886 -55.9801 18.0987 91.7731 109.12 100.367
92.4014 108.026 109.147 126.566 134.301 143.181 -55.9042 81.8616 73.8871 50.7615
12.4802 18.5364 16.7083 -75.6804 -56.9162 -56.9095 -56.9126 -55.2663 -55.1963 -59.9006
-55.4346 -59.8815 -60.4585 23.2751 -6.4746 5.93324 10.5193 10.7542 -1.418 -1.52393
-2.63361 -55.7498 -54.3101 -1.03477 2.52418 2.83265 -57.6277 -57.0675 -56.1932 7.92349
7.6139 4.10117 -56.722 41.6254 50.0276 -65.7752 -58.2029 17.9998 15.5399 9.00764
6.91596 5.07984 8.53317 6.97228 -54.2924 -54.2517 -53.0757 -53.005 -55.929 -52.3421
-51.8695 -54.4701 -54.7832 -54.776 -54.2532 -55.3521 -54.9171 -54.7843 -54.5191 4.49042
-51.86 -57.9091 -56.8902 100.556 129.201 144.751 155.216 168.119 162.959 160.77
148.77 188.253 -52.9299 -53.8643 -51.8809 -7.43322 -10.4696 -3.28118 -49.8438 -49.8665
-49.8472 -50.1271 -53.2582 -47.3568 -48.9059 -47.6698 -47.177 -47.8806 28.765 20.1892
-112.518 -120.144 -120.009 -120.649 -120.996 -73.9821 -96.5474 -73.9858 13.3352 16.9541
-10.9441 12.0597 11.5062 -5.47348 -7.05581 4.12217 2.50045 0.999004 0.641208 -0.63263
-2.24628 -0.988494 4.14657 4.51972 0.594386 2.83384 4.49203 2.40685 1.32268 13.2669
17.5519 -50.1734 5.49852 12.7824 8.50927 16.5096 8.49103 11.1961 14.2219 15.9998
4.79352 5.00179 6.45096 5.87945 -2.0845 -4.00107 -6.24916 -6.15101 4.85316 1.6631
4.37158 9.42921 15.3247 16.5299 8.22144 5.65321 3.03455 2.72436 7.17308 10.6505
11.3078 11.9485 11.0797 5.69235 -3.56101 5.5671 -2.80478 3.20875 -3.57013 2.44198
10.9698 8.31164 12.3376 6.95327 9.44053 11.3471 10.744 10.4455 7.90952 8.60393
9.12255 9.36831 7.87134 7.33785 7.35148 5.99316 -5.46317 -8.96532 -7.19616 6.46709
5.87451 7.94148 6.2301 -9.19818 -10.9607 1.06708 7.03928 5.87131 -1.68513 5.66375
-136.214 -137.201 -137.509 10.2213 -55.6521 -54.5879 -54.6454 5.23192 9.91834 5.31644
8.40369 10.9516 -55.812 -55.7716 -55.1452 -54.8328 -61.0664 -60.5788 -61.0716 -69.0901
-116.24 -120.143 -113.921 -120.868 -49.1022 -49.6313 -47.5697 -47.2695 -47.5365 -47.2449
-14.6429 -14.6423 -17.0653 -52.7469 -52.5616 -52.3173 5.13754 1.51082 4.97952 4.95454
-52.1153 -52.5516 -52.6794 141.813 151.155 -55.3384 -50.7999 13.308 13.8751 11.5942
7.19514 11.4944 18.7663 4.20128 3.31856 4.6585 3.65762 -53.4089 -57.2973 -57.1202
-55.3225 7.75215 15.0688 11.1081 4.08832 4.24171 10.0585 8.81334 9.50557 8.60929
10.3967 12.4175 10.2628 5.82302 8.5596 8.21522 -54.2716 -50.2951 -48.6447 91.2029
80.224 84.1981 66.7089 72.6971 -4.7628 -2.90071 0.32551 -1.44673 7.61624 8.13336
7.66469 8.25975 8.02043 7.51301 7.06025 116.819 106.788 94.7459 -73.9104 -57.3252
-56.0043 -54.8692 -54.6654 -54.337 -54.2944 163.489 139.772 161.898 162.007 7.62204
4.49575 10.6008 11.3015 7.18025 8.50261 7.41342 6.87744 6.1427 2.7632 -2.35025
4.74386 5.37999 5.95962 4.3664 6.65484 14.399 9.02429 -12.7794 15.6197 14.3053
7.65048 10.7562 15.9098 9.10882 -12.6472 -13.5733 -11.6409 -2.83713 -4.87085 -13.122
7.23192 5.28615 -14.6864 -16.3039 7.20787 4.87498 -1.01145 -3.90932 -55.1763 -46.0366
13.0517 1.95239 0.288082 -0.102797 5.97178 5.53273 6.458 6.05212 6.00943 5.59932
0.325995 6.27999 6.91659 -0.414983 5.73108 4.75689 7.19687 6.68731 6.11392 106.172
86.6329 121.998 123.78 5.18722 4.91528 3.46228 -55.3924 5.11696 6.1005 5.87858
-9.4918 -12.4377 -0.194234 6.26576 6.75951 5.39744 8.06558 5.20986 6.89017 3.89987
37.6006 -53.3393 -55.1919 -54.6965 -54.6534 -54.7198 -2.87334 -4.25154 -12.5558 -12.4251
-12.4473 -3.44279 9.42447 3.13105 5.99223 7.09642 2.61834 2.40016 0.126172 -0.846134
-10.8551 -5.18785 -4.09005 -11.2334 -4.15283 -12.1003 5.58609 -11.3641 -12.3829 -2.42992
1.23477 6.36855 6.38255 5.81048 8.86799 0.272335 6.68021 -3.04156 -1.0511 4.37366
-0.745184 7.23216 4.85538 -9.79318 8.99745 -0.596849 6.1593 1.0856 1.46832 4.831
5.18379 4.27493 4.99302 3.13797 7.65983 8.89095 5.46961 6.08473 0.989261 3.4694
11.0865 5.54204 0.848423 -0.497144 3.63757 173.172 176.993 176.115 181.029 169.128
168.096 172.676 179.962 180.953 69.9013 74.0782 55.3154 -56.2166 -41.5245 -38.6337
-36.9103 -31.0119 -43.7943 -52.0987 -51.7486 -55.4038 -46.7591 100.823 154.463 162.105
155.247 146.974 -56.6928 -56.2853 -56.6234 -56.3934 -55.8991 -56.3535 -54.9708 -55.2773
-55.1168 3.96627 -0.316449 171.248 -18.4404 186.026 190.273 189.42 -51.3448 -47.3174
182.755 185.885 186.062 -16.2625 -51.2834 85.2526 -55.0424 -55.1743 -55.4367 -55.3998
-49.497 189.396 -2.40618 189.508 185.53 189.103 7.33167 -64.3382 110.718 110.031
-55.9512 4.67671 -51.8549 -53.1628 -51.967 -137.695 138.714 -54.8862 159.243 -52.0874
-121.076 -120.994 72.2261 6.9604 2.61769 168.08 164.693 -15.4315 139.86 191.115
190.011 185.408 189.466 190.798 189.794 172.806 191.17 186.791 189.965 191.204
0.615411 0.610944 0.636277 0.70541 0.919396 1.62368 2.21013 -3.98037 1.36004 0.0227809
-4.09903 -5.86737 0.408329 0.0898324 -0.00201768 0.00504221 0.0102285 0.00567095 0.00106787 -0.000526625
-0.000266029 0.00024414 0.00111793 0.000597624 -54.3008 -52.5884 -134.391 -134.949 -48.1149 -48.5809
-49.2618 -47.9538 -48.4632 -49.1879 -49.8564 -47.4507 -95.1112 -74.7715 -48.9713 -47.2988
-74.2096 -48.8943 -51.4064 -51.7627 -50.8724 -99.6886 -111.424 -129.874 -120.141 -119.961

U 3 2021 float
20.006 -0.0462225 -0.216114 20.0437 -0.0310959 -0.0741255 19.9288 -0.00666162 -0.0965772 19.9351 -0.0563031
-0.607371 20.0176 -0.059916 0.0399459 20.0179 -0.0598112 0.0399779 20.1682 -0.0789326 0.0574976
20.233 -0.0871681 0.0655326 20.2785 -0.0921901 0.149289 20.291 -0.117249 0.263806 20.2099
-0.118474 0.208671 19.9543 -0.0476571 0.0198515 19.9967 -0.0551977 0.0183287 20.0037 -0.0534563
0.00695055 19.8524 -0.0246544 0.0177056 19.8512 -0.0214339 0.0141593 20.0059 -0.0531507 0.00186897
19.8536 -0.0200292 0.00966806 20.0043 -0.0523157 0.000491369 19.8526 -0.0183704 0.00876645 20.0026
-0.0514821 -3.77181e-05 19.8513 -0.0168168 0.00846314 20.001 -0.0507104 -0.000314805 19.8502 -0.0154817
0.00822817 19.9995 -0.0500139 -0.000493128 19.8491 -0.0143197 0.00801303 19.9978 -0.0493442 -0.00061676
19.848 -0.0132597 0.00782551 19.9961 -0.0486859 -0.000712876 19.8469 -0.012295 0.00762761 19.9945
-0.0480423 -0.000747217 19.8458 -0.011411 0.00753846 19.9925 -0.0473781 -0.00083736 19.8448 -0.0104813
0.00726067 19.8443 -0.00999748 0.00696023 19.9922 -0.0471652 -0.000877067 19.9996 -0.000345118 3.12831e-05
20 0 0 20 0 0 19.9996 -0.000345127 7.86568e-05 19.9983
-0.000797714 9.39219e-05 19.9984 -0.000807192 0.000278781 19.9942 -0.00156923 0.000368323 19.9941 -0.00153336
0.0010007 19.9787 -0.00283662 0.000337112 19.9795 -0.00316025 0.00358238 19.9463 -0.00557534 -0.00906376
19.9362 -0.00632024 -0.00795677 19.9388 0.00216594 -0.0143301 19.9275 -0.0056017 -0.0295197 19.9059
0.0050876 -0.061035 20.2333 -0.0733368 0.00174561 20.0483 -0.0292444 -0.0567349 20.2354 -0.0724283
0.00499477 19.9268 -0.0897355 0.030729 20.0247 -0.119505 0.0821456 20.2327 -0.0871362 0.0650136
19.8544 -0.029864 0.0234423 19.3064 0.120723 0.0100259 19.3385 0.118085 0.0111473 19.3666
0.112316 0.0112034 19.3878 0.108004 0.011892 19.4061 0.1042 0.0123989 19.4231 0.10059
0.012577 19.4391 0.0971759 0.0125845 19.4541 0.0939613 0.0125139 19.4684 0.0908963 0.0123753
19.4816 0.0879953 0.0122627 19.4963 0.0851593 0.0119824 19.505 0.0837007 0.0117239 20
0 0 19.9996 -0.000345633 0.000137325 19.9985 -0.000805368 0.000490493 19.9945 -0.00153883
0.00172061 19.98 -0.00328185 0.00604046 19.9197 -0.00886098 0.0107718 19.9194 -0.00803666 0.00103487
19.8497 -0.0167806 -0.0957868 19.7931 -0.020702 -0.0681194 19.9547 -0.0515703 -1.02619 20.4342
-0.0684612 -0.937411 20.2159 -0.0542344 -0.510376 19.9299 -0.0563335 -0.636898 20.3095 -0.165285
0.453234 20.3099 -0.166175 0.456694 20.0995 -0.252029 0.5822 19.9901 -0.24134 0.302361