# vtk DataFile Version 2.0
tracks
ASCII
DATASET POLYDATA
POINTS 2620 float
-1.001 -0.05 0.0011 -0.900789 -0.0500243 0.00109673 -0.800577 -0.0500485 0.00109346 -0.700366 -0.0500727
0.00109021 -0.600155 -0.0500968 0.00108697 -0.499943 -0.0501208 0.00108373 -0.424945 -0.0501243 0.00107197
-0.349947 -0.0501805 0.00105636 -0.274949 -0.0502358 0.00104098 -0.19995 -0.0502903 0.00102582 -0.124952
-0.050344 0.00101089 -0.0499538 -0.050349 0.00100908 0.0250446 -0.0503503 0.00101588 0.100043 -0.0503515
0.00102274 0.175041 -0.0503527 0.00102963 0.25004 -0.050354 0.00103658 0.400037 -0.0503495 0.00104747
0.550035 -0.0503476 0.00105474 0.700032 -0.0503456 0.00106205 0.85003 -0.0503437 0.00106942 1.00003
-0.0503417 0.00107685 1.15003 -0.0503436 0.0010758 1.30002 -0.0503573 0.00107726 1.45002 -0.0503711
0.00107873 1.60002 -0.0503848 0.0010802 1.75002 -0.0503986 0.00108167 1.90002 -0.0504005 0.00107999
2.05002 -0.0504156 0.00108036 2.20001 -0.0504307 0.00108073 2.35001 -0.0504458 0.0010811 2.50001
-0.0504609 0.00108147 2.65001 -0.0504628 0.00107908 2.80001 -0.050479 0.00107924 2.95001 -0.0504952
0.0010794 3.10001 -0.0505114 0.00107956 3.25001 -0.0505276 0.00107972 3.40001 -0.0505295 0.0010768
3.55001 -0.0505469 0.00107691 3.70001 -0.0505644 0.00107702 3.85001 -0.0505819 0.00107713 4.00001
-0.0505994 0.00107724 4.15 -0.0506013 0.00107402 4.3 -0.0506199 0.00107407 4.45 -0.0506385
0.00107413 4.6 -0.0506571 0.00107419 4.75 -0.0506757 0.00107425 4.9 -0.0506776 0.00107087
5.05 -0.0506971 0.0010709 5.2 -0.0507166 0.00107093 5.35 -0.0507361 0.00107096 5.5
-0.0507556 0.00107099 5.65 -0.0507576 0.00106756 5.8 -0.0507777 0.00106758 5.95 -0.0507978
0.00106759 6.1 -0.050818 0.00106761 6.25 -0.0508381 0.00106762 6.4 -0.05084 0.00106421
6.55 -0.0508606 0.00106421 6.7 -0.0508812 0.00106421 6.85 -0.0509017 0.0010642 7
-0.0509223 0.0010642 7.15 -0.0509242 0.00106086 7.3 -0.050945 0.00106083 7.45 -0.0509658
0.00106079 7.6 -0.0509866 0.00106076 7.75 -0.0510074 0.00106072 7.9 -0.0510092 0.00105749
8.05 -0.0510301 0.00105738 8.2 -0.0510509 0.00105728 8.35 -0.0510717 0.00105717 8.5
-0.0510926 0.00105707 8.65 -0.0510944 0.00105398 8.8 -0.0511151 0.00105383 8.95 -0.0511358
0.00105369 9.1 -0.0511566 0.00105354 9.25 -0.0511773 0.0010534 9.4 -0.051179 0.00105043
9.55 -0.0512101 0.0010473 9.7 -0.0512529 0.00104122 9.85 -0.0513074 0.00103219 10
-0.0513734 0.00102021 -1.001 -0.05 0.0537316 -0.900807 -0.0500741 0.053557 -0.800614 -0.0501506
0.0533541 -0.700421 -0.0502556 0.0530884 -0.600229 -0.0503974 0.0527492 -0.500035 -0.050576 0.0523369
-0.425005 -0.0509046 0.0519464 -0.349975 -0.0513493 0.0514308 -0.274947 -0.0518311 0.0509268 -0.199917
-0.0523166 0.0504845 -0.124884 -0.0527584 0.0501448 -0.0498909 -0.0529784 0.0500626 0.0251022 -0.0530908
0.050222 0.100095 -0.0531766 0.0504681 0.175088 -0.053252 0.0507702 0.250084 -0.0533033 0.051107
0.400074 -0.05338 0.0516796 0.550065 -0.0534822 0.0519007 0.700055 -0.0535584 0.0520417 0.850046
-0.0536084 0.0521026 1.00003 -0.053639 0.0520866 1.07023 -0.0536762 0.0520735 1.14042 -0.0537169
0.0520514 1.21062 -0.0537576 0.0520278 1.28081 -0.0537982 0.0520027 1.34721 -0.0538367 0.0519776
1.42777 -0.0538833 0.0519454 1.50833 -0.0539359 0.0519124 1.58889 -0.0539946 0.0518786 1.66946
-0.0540593 0.0518441 1.75002 -0.0541331 0.0518095 1.90002 -0.0542356 0.0517342 2.05001 -0.0544005
0.051664 2.20001 -0.0545706 0.0515867 2.35001 -0.0547459 0.0515024 2.50001 -0.0549264 0.0514111
2.65001 -0.0550176 0.0512981 2.80001 -0.0552148 0.0512022 2.95001 -0.0554135 0.0511008 3.10001
-0.0556126 0.0509939 3.25001 -0.0558119 0.0508815 3.40001 -0.0559014 0.0507439 3.55001 -0.0561119
0.0506295 3.70001 -0.0563228 0.050512 3.85001 -0.0565343 0.0503914 4.00001 -0.0567464 0.0502678
4.15 -0.056836 0.0501172 4.3 -0.0570577 0.0499927 4.45 -0.0572801 0.049867 4.6
-0.0575029 0.04974 4.75 -0.0577263 0.0496117 4.9 -0.0578159 0.0494556 5.05 -0.0580473
0.0493275 5.2 -0.0582793 0.0491993 5.35 -0.0585117 0.0490709 5.5 -0.0587446 0.0489424
5.65 -0.0588336 0.0487857 5.8 -0.0590727 0.0486579 5.95 -0.059312 0.0485308 6.1
-0.0595518 0.0484043 6.25 -0.0597919 0.0482784 6.4 -0.0598795 0.0481242 6.55 -0.0601241
0.0479993 6.7 -0.0603688 0.0478755 6.85 -0.0606137 0.0477529 7 -0.0608588 0.0476315
7.15 -0.0609442 0.047482 7.3 -0.0611921 0.0473614 7.45 -0.0614399 0.0472423 7.6
-0.0616876 0.0471247 7.75 -0.0619353 0.0470086 7.9 -0.0620176 0.046865 8.05 -0.0622667
0.0467495 8.2 -0.0625156 0.0466358 8.35 -0.0627644 0.0465241 8.5 -0.063013 0.0464143
8.65 -0.0630916 0.0462786 8.8 -0.0633403 0.0461696 8.95 -0.0635882 0.0460622 9.1
-0.0638353 0.0459565 9.25 -0.0640816 0.0458523 9.4 -0.064154 0.045723 9.55 -0.0644002
0.0456167 9.7 -0.0646484 0.0455113 9.85 -0.0648962 0.0454075 10 -0.0651434 0.0453055
-1.001 -0.05 0.106363 -0.900818 -0.0500366 0.106111 -0.800636 -0.0500734 0.105808 -0.700455
-0.050142 0.105428 -0.600275 -0.0502906 0.104739 -0.500089 -0.050519 0.103748 -0.425 -0.0508864
0.102914 -0.349912 -0.0513322 0.10198 -0.274824 -0.0517646 0.100999 -0.199735 -0.0521264 0.100162
-0.124638 -0.0525044 0.0997555 -0.0496339 -0.0526891 0.0996283 0.0253704 -0.0527646 0.099732 0.100374
-0.0528049 0.0999798 0.175378 -0.0528512 0.100388 0.250395 -0.0529033 0.100956 0.400333 -0.0529836
0.102015 0.550274 -0.0530958 0.102664 0.700215 -0.053183 0.103177 0.850156 -0.0532433 0.103469
1.00008 -0.0532767 0.103535 1.15007 -0.0533563 0.10367 1.30006 -0.0534876 0.103663 1.45005
-0.0536238 0.103605 1.60003 -0.0537632 0.103538 1.75002 -0.0539057 0.103461 1.90002 -0.0540358
0.103418 2.05002 -0.0541951 0.103309 2.20001 -0.0543543 0.103188 2.35001 -0.0545141 0.103059
2.50001 -0.0546744 0.102921 2.65001 -0.0548108 0.102819 2.80001 -0.0549817 0.102652 2.95001
-0.0551529 0.102478 3.10001 -0.0553246 0.102297 3.25001 -0.0554969 0.102109 3.40001 -0.0556377
0.101971 3.55001 -0.0558203 0.101766 3.70001 -0.0560035 0.101557 3.85 -0.0561873 0.101344
4 -0.0563716 0.101127 4.15 -0.0565171 0.100966 4.3 -0.0567098 0.10074 4.45
-0.056903 0.100511 4.6 -0.0570968 0.100281 4.75 -0.0572912 0.100048 4.9 -0.0574404
0.0998758 5.05 -0.0576411 0.0996388 5.2 -0.0578424 0.0994011 5.35 -0.0580441 0.0991626
5.5 -0.0582464 0.0989234 5.65 -0.0583981 0.0987462 5.8 -0.0586044 0.0985059 5.95
-0.0588111 0.0982657 6.1 -0.059018 0.0980255 6.25 -0.0592254 0.0977853 6.4 -0.0593784
0.097608 6.55 -0.0595876 0.0973691 6.7 -0.059797 0.0971307 6.85 -0.0600064 0.096893
7 -0.060216 0.0966559 7.15 -0.0603688 0.0964818 7.3 -0.060578 0.0962479 7.45
-0.0607871 0.096015 7.6 -0.060996 0.095783 7.75 -0.0612048 0.0955519 7.9 -0.0613558
0.0953831 8.05 -0.0615622 0.0951564 8.2 -0.0617683 0.0949311 8.35 -0.0619742 0.0947074
8.5 -0.0621797 0.0944852 8.65 -0.0623278 0.0943245 8.8 -0.0625292 0.0941094 8.95
-0.0627296 0.0938956 9.1 -0.0629291 0.0936829 9.25 -0.0631275 0.0934715 9.4 -0.0632692
0.0933172 9.55 -0.0634566 0.0931089 9.7 -0.0636434 0.092902 9.85 -0.0638294 0.0926963
10 -0.0640147 0.0924919 -1.001 -0.05 0.158995 -0.900796 -0.0500537 0.158747 -0.800593
-0.0501156 0.158355 -0.700393 -0.0502332 0.157486 -0.6002 -0.0504212 0.156037 -0.499994 -0.0506761
0.153818 -0.424732 -0.0513247 0.151805 -0.349454 -0.0518875 0.15044 -0.274172 -0.0523679 0.14932
-0.198887 -0.0528284 0.148431 -0.123651 -0.0531501 0.147932 -0.0487681 -0.0531544 0.147565 0.0261151
-0.0531234 0.147824 0.100995 -0.0531276 0.14853 0.175874 -0.0531373 0.149396 0.250859 -0.053154
0.150301 0.400714 -0.0531707 0.151698 0.550573 -0.0532115 0.152787 0.700434 -0.0532872 0.153454
0.850295 -0.053348 0.153905 1.00013 -0.0533817 0.154133 1.15011 -0.0534615 0.154428 1.30009
-0.053593 0.154583 1.45007 -0.0537319 0.154628 1.60005 -0.0538771 0.154594 1.75002 -0.0540255
0.154551 1.90002 -0.0541614 0.154541 2.05002 -0.0543267 0.154465 2.20001 -0.05449 0.154367
2.35001 -0.0546525 0.154252 2.50001 -0.0548156 0.154128 2.65001 -0.0549546 0.154042 2.80001
-0.0551283 0.15389 2.95001 -0.0553012 0.153723 3.10001 -0.0554741 0.153546 3.25001 -0.0556475
0.153363 3.40001 -0.0557891 0.15323 3.55001 -0.055973 0.153029 3.70001 -0.0561569 0.152819
3.85 -0.056341 0.152602 4 -0.0565258 0.152381 4.15 -0.0566714 0.152217 4.3
-0.0568646 0.151987 4.45 -0.0570576 0.151751 4.6 -0.0572508 0.151511 4.75 -0.0574446
0.15127 4.9 -0.0575928 0.151089 5.05 -0.0577931 0.150843 5.2 -0.0579931 0.150594
5.35 -0.0581933 0.150343 5.5 -0.0583941 0.150092 5.65 -0.0585439 0.149903 5.8
-0.0587487 0.149651 5.95 -0.0589532 0.149397 6.1 -0.0591578 0.149143 6.25 -0.0593628
0.148889 6.4 -0.0595129 0.148698 6.55 -0.0597198 0.148446 6.7 -0.0599263 0.148193
6.85 -0.0601326 0.147941 7 -0.0603391 0.147689 7.15 -0.0604884 0.147501 7.3
-0.0606944 0.147253 7.45 -0.0608999 0.147005 7.6 -0.0611052 0.146759 7.75 -0.0613102
0.146513 7.9 -0.061457 0.14633 8.05 -0.0616597 0.146089 8.2 -0.0618616 0.14585
8.35 -0.0620631 0.145613 8.5 -0.0622643 0.145377 8.65 -0.0624076 0.145203 8.8
-0.0626045 0.144974 8.95 -0.0627998 0.144747 9.1 -0.062994 0.144521 9.25 -0.0631871
0.144296 9.4 -0.063323 0.144129 9.55 -0.063505 0.143908 9.7 -0.0636859 0.143686
9.85 -0.063866 0.143466 10 -0.0640453 0.143247 -1.001 -0.05 0.211626 -0.94728
-0.0500604 0.211448 -0.893561 -0.0501232 0.211229 -0.839842 -0.0501884 0.210969 -0.786123 -0.0503126
0.210617 -0.718899 -0.0505838 0.20997 -0.675105 -0.0508775 0.209145 -0.631317 -0.051224 0.20806
-0.587533 -0.0515777 0.206808 -0.543755 -0.05194 0.205387 -0.499929 -0.0523127 0.203793 -0.482232
-0.0524911 0.20304 -0.464538 -0.0526762 0.202241 -0.446841 -0.0528566 0.201492 -0.429143 -0.0530326
0.200791 -0.408545 -0.0532327 0.200029 -0.351763 -0.0537699 0.198095 -0.294977 -0.0542847 0.196311
-0.238181 -0.054773 0.194833 -0.181371 -0.0552305 0.194072 -0.12475 -0.0555681 0.193895 -0.0495159
-0.0558566 0.194061 0.0257155 -0.0559418 0.194717 0.10094 -0.0559453 0.195905 0.176162 -0.0559465
0.197284 0.251445 -0.0559288 0.198458 0.322369 -0.0558908 0.199399 0.393294 -0.0558528 0.200243
0.464221 -0.0558178 0.200954 0.535149 -0.0557834 0.201542 1.00019 -0.05551 0.204746 1.15015
[...]
POINT_DATA 2620
FIELD attributes 4
age 1 2620 float
0 0.00501215 0.0100243 0.0150364 0.0200486 0.0250607 0.0288105 0.0325587 0.0363069 0.0400551 0.0438034
0.0475519 0.0512975 0.0550431 0.0587886 0.0625341 0.070031 0.0775294 0.0850277 0.0925261 0.100024
0.107524 0.115024 0.122523 0.130023 0.137523 0.145023 0.152522 0.160021 0.167521 0.17502
0.18252 0.19002 0.197519 0.205018 0.212518 0.220018 0.227517 0.235016 0.242516 0.250015
0.257515 0.265014 0.272514 0.280013 0.287513 0.295013 0.302512 0.310011 0.317511 0.32501
0.33251 0.34001 0.347509 0.355009 0.362508 0.370008 0.377508 0.385007 0.392506 0.400006
0.407506 0.415006 0.422505 0.430005 0.437504 0.445004 0.452504 0.460003 0.467503 0.475003
0.482503 0.490002 0.497502 0.505002 0.512501 0.520002 0.5275 0.534998 0.542495 0.549991
0 0.00503694 0.0100765 0.0151101 0.0201348 0.0251509 0.0288976 0.0326381 0.0363708 0.0400956
0.043813 0.0475227 0.0512228 0.0549208 0.0586181 0.0623161 0.0697241 0.0771593 0.0846099 0.0920759
0.099557 0.103064 0.106572 0.11008 0.113588 0.116907 0.120934 0.124962 0.12899 0.133019
0.137049 0.144553 0.152054 0.159554 0.167053 0.174551 0.182052 0.189549 0.197045 0.204542
0.212038 0.219539 0.227035 0.234531 0.242028 0.249524 0.257025 0.264522 0.272018 0.279515
0.287012 0.294514 0.302011 0.309508 0.317006 0.324504 0.332007 0.339505 0.347003 0.354501
0.362 0.369504 0.377003 0.384502 0.392002 0.399501 0.407007 0.414507 0.422008 0.429508
0.43701 0.444517 0.452018 0.45952 0.467023 0.474526 0.482034 0.489538 0.497042 0.504546
0.512052 0.519563 0.527069 0.534575 0.542081 0.549588 0 0.00503926 0.0100816 0.0151182
0.0201488 0.0251737 0.0289302 0.0326798 0.0364214 0.0401567 0.0438794 0.0475909 0.0512935 0.0549934
0.0586905 0.0623857 0.0697827 0.0772095 0.0846549 0.0921273 0.0996258 0.107145 0.114665 0.122192
0.12972 0.137248 0.14479 0.152317 0.159843 0.167368 0.174891 0.18243 0.189952 0.197474
0.204996 0.212517 0.220054 0.227575 0.235096 0.242616 0.250137 0.257673 0.265194 0.272714
0.280235 0.287755 0.295292 0.302812 0.310333 0.317853 0.325373 0.33291 0.340431 0.347951
0.355471 0.362992 0.370529 0.378049 0.38557 0.393091 0.400612 0.408149 0.41567 0.423191
0.430712 0.438234 0.445771 0.453293 0.460816 0.468338 0.47586 0.483399 0.490922 0.498445
0.505969 0.513494 0.521033 0.528559 0.536085 0.543611 0.551136 0 0.00504152 0.0100909
0.0151391 0.020183 0.0252252 0.0290076 0.0327729 0.0365262 0.0402691 0.043999 0.0477062 0.0514016
0.0550908 0.0587773 0.0624692 0.0698617 0.0772923 0.0847578 0.0922496 0.0997675 0.10731 0.114854
0.122413 0.129981 0.13755 0.145133 0.152701 0.160271 0.16784 0.175408 0.182991 0.190558
0.198124 0.205691 0.213257 0.220839 0.228405 0.235971 0.243538 0.251104 0.258686 0.266252
0.273818 0.281384 0.28895 0.296533 0.304099 0.311665 0.319231 0.326797 0.334379 0.341945
0.349511 0.357077 0.364643 0.372225 0.379791 0.387357 0.394922 0.402488 0.41007 0.417636
0.425202 0.432767 0.440333 0.447915 0.455481 0.463046 0.470612 0.478178 0.485759 0.493325
0.500891 0.508457 0.516023 0.523604 0.531172 0.538739 0.546306 0.553872 0 0.00270681
0.00541584 0.00812708 0.0108382 0.0142297 0.0164398 0.0186505 0.0208609 0.0230711 0.0252836 0.0261764
0.0270687 0.0279597 0.0288495 0.0298836 0.0327295 0.0355631 0.0383841 0.0411917 0.0439768 0.0476673
0.0513529 0.0550373 0.0587275 0.0624329 0.0659323 0.069441 0.0729595 0.0764876 0.0996791 0.107245
0.114813 0.122395 0.129991 0.137601 0.145226 0.152835 0.160446 0.168058 0.17567 0.183298
0.190909 0.19852 0.206131 0.213743 0.221371 0.228982 0.236593 0.244205 0.251816 0.259445
0.267057 0.274668 0.28228 0.289892 0.297521 0.305133 0.312745 0.320356 0.327968 0.335597
0.343209 0.35082 0.358431 0.366042 0.373671 0.381282 0.388893 0.396504 0.404115 0.411743
0.419354 0.426964 0.434574 0.442184 0.449811 0.457421 0.46503 0.47264 0.480249 0.487874
0.495484 0.503093 0.510701 0.518309 0.525933 0.533542 0.541151 0.548759 0.556367 0
0.0012675 0.0025355 0.00380436 0.00507422 0.00634512 0.0101445 0.0139529 0.0177742 0.021605 0.0254237
0.0265548 0.0276805 0.0288023 0.0299202 0.0307582 0.031568 0.032376 0.0331821 0.0339863 0.034791
0.0366348 0.038474 0.0403038 0.0421272 0.0439339 0.0457496 0.0475624 0.0493842 0.0512103 0.0530399
0.0548733 0.0567103 0.0585505 0.0603939 0.0622412 0.0659441 0.0696599 0.073399 0.0771634 0.08095
0.0847735 0.0885796 0.0923802 0.0961813 0.0999868 0.107614 0.11525 0.122896 0.130551 0.138216
0.145882 0.153555 0.161227 0.168898 0.17657 0.184237 0.191907 0.199576 0.207246 0.214915
0.222582 0.230251 0.23792 0.245589 0.253258 0.260925 0.268594 0.276263 0.283932 0.2916
0.299268 0.306936 0.314604 0.322271 0.329939 0.337605 0.345272 0.352939 0.360605 0.36827
0.368519 0.368767 0.369016 0.369264 0.369513 0.376929 0.384346 0.391762 0.399178 0.406594
0.414259 0.421923 0.429586 0.437249 0.444912 0.452575 0.460237 0.467898 0.475559 0.48322
0.490882 0.498542 0.506201 0.513859 0.521517 0.529176 0.536833 0.54449 0.552146 0.559801
0 0.00126907 0.00253876 0.00380908 0.00508003 0.00635163 0.00825241 0.0101559 0.0120622 0.0139716
0.0158834 0.0178088 0.0197396 0.0216729 0.0236111 0.025564 0.0265435 0.0275207 0.0284935 0.0294618
0.0304322 0.0307193 0.0310057 0.0312914 0.0315763 0.0318285 0.0324999 0.0331666 0.0338288 0.0344866
0.0351406 0.0360592 0.0369741 0.0378852 0.0387931 0.0396884 0.0405865 0.0414814 0.0423748 0.0432669
0.0441573 0.0459459 0.0477467 0.0495593 0.0513817 0.0532249 0.0544469 0.0556706 0.0569001 0.0581352
0.0598983 0.0604368 0.0609762 0.0615167 0.0620583 0.0626007 0.0645071 0.0664185 0.0683347 0.070256
0.0721833 0.0741188 0.076052 0.0779909 0.0799371 0.0818922 0.0838349 0.0857853 0.0877309 0.0896715
0.0913482 0.0933867 0.095425 0.0974625 0.0994991 0.101534 0.109354 0.117181 0.125001 0.1328
0.14058 0.148345 0.156123 0.163899 0.171676 0.179453 0.187215 0.194991 0.202767 0.210542
0.218318 0.226079 0.233854 0.241629 0.249403 0.257178 0.264939 0.272713 0.280486 0.28826
0.296034 0.303793 0.311565 0.319337 0.327109 0.33488 0.342638 0.350408 0.358177 0.365945
0.373714 0.381469 0.389235 0.397 0.404766 0.41253 0.420282 0.428044 0.435805 0.443566
0.451326 0.459074 0.46683 0.474586 0.482341 0.490095 0.497839 0.50559 0.51334 0.521088
0.528836 0.536574 0.544317 0.552059 0.5598 0.56754 0 0.00126642 0.00253366 0.00380216
0.00507207 0.00634339 0.00826051 0.0101798 0.012103 0.0140299 0.0159623 0.0178881 0.0198271 0.0217795
0.0237459 0.0257383 0.0267473 0.0277608 0.0287798 0.0298014 0.0308373 0.0310053 0.0311736 0.0313419
0.0315092 0.0316496 0.032504 0.0333443 0.0341704 0.0349779 0.03579 0.0362486 0.0367052 0.03716
0.0376141 0.0380858 0.0381264 0.038167 0.0382076 0.0382482 0.0382982 0.0387062 0.039114 0.0395213
0.0399278 0.0403263 0.0412126 0.0420999 0.0429879 0.0438784 0.0447713 0.0453583 0.0459461 0.0465366
0.0471297 0.0473094 0.047711 0.0481138 0.0485179 0.0489231 0.0493308 0.050267 0.0511965 0.0521286
0.0530651 0.0540159 0.055951 0.0579446 0.0599841 0.0620537 0.0641453 0.0662753 0.068385 0.0704384
0.0724871 0.0745458 0.074887 0.0752283 0.0755697 0.0759112 0.0762986 0.0780192 0.0797476 0.0814829
0.0832234 0.0849671 0.089141 0.0933466 0.0975355 0.101708 0.10585 0.113942 0.121961 0.129844
0.137707 0.145549 0.153381 0.161226 0.169068 0.17691 0.184751 0.192578 0.200418 0.208258
0.216098 0.223937 0.231761 0.239599 0.247437 0.255275 0.263112 0.270935 0.278771 0.286607
0.294442 0.302278 0.310098 0.317932 0.325765 0.333597 0.341429 0.349247 0.357077 0.364906
0.372734 0.380562 0.388376 0.396201 0.404026 0.411849 0.419672 0.427482 0.435302 0.44312
0.450937 0.458754 0.466559 0.474372 0.482183 0.489994 0.497804 0.505603 0.513409 0.521213
0.529015 0.536817 0.544608 0.552404 0.560198 0.567992 0.575784 0 0.00126811 0.00253702
0.00380674 0.00507725 0.00634927 0.00827348 0.0102007 0.0121318 0.0140701 0.0160224 0.0169988 0.0179779
0.0189597 0.0199443 0.0209317 0.0219237 0.0229243 0.0239344 0.0249543 0.0259855 0.026508 0.027033
0.0275627 0.0280973 0.0286396 0.028992 0.0293468 0.0297056 0.0300691 0.0301626 0.0304281 0.0306951
0.0309628 0.0312312 0.0315083 0.0316587 0.0318094 0.0319609 0.032113 0.0322117 0.0322188 0.0322258
0.0322328 0.0322398 0.0322468 0.0324058 0.0325649 0.0327239 0.032883 0.0330432 0.0332288 0.0334138
0.0335981 0.0337797 0.0339384 0.0340475 0.034156 0.0342638 0.0343706 0.0344788 0.0346537 0.0348249
0.0349929 0.0351585 0.0352662 0.0352785 0.0352907 0.035303 0.0353153 0.0353274 0.0354279 0.035528
0.0356275 0.0357264 0.0358254 0.0359376 0.036049 0.0361597 0.0362701 0.0364112 0.0365571 0.0367042
0.0368577 0.0370083 0.0371362 0.0371978 0.0372594 0.0373211 0.0373836 0.0374613 0.0375337 0.0376054
0.0376765 0.037747 0.0378228 0.0379489 0.0380748 0.0382003 0.0383255 0.0384509 0.038712 0.0389688
0.0392231 0.0394802 0.0397327 0.0398717 0.0400073 0.040143 0.0402796 0.0404415 0.0405703 0.0406988
0.0408271 0.0409559 0.0411691 0.0414222 0.0416779 0.0419359 0.0421965 0.0424582 0.0435714 0.0446992
0.0458149 0.0469075 0.0479517 0.0479587 0.0479657 0.0479727 0.0479798 0.0479868 0.0490618 0.0501523
0.0512341 0.052303 0.0533937 0.0535288 0.0536637 0.0537987 0.0539338 0.0540713 0.0550488 0.0560358
0.057039 0.0580593 0.0590889 0.0602514 0.0614389 0.0626526 0.0638811 0.0651282 0.0663886 0.0676234
0.0688465 0.070079 0.0713195 0.073154 0.0749942 0.0768253 0.0786625 0.0838816 0.0849023 0.0859895
0.0870447 0.0880698 0.0913022 0.0921327 0.092964 0.0937961 0.0946289 0.0954624 0.0955779 0.0956934
0.0958087 0.0959241 0.0960372 0.100504 0.104908 0.109247 0.113464 0.117676 0.126138 0.134566
0.14282 0.150903 0.158816 0.166722 0.174646 0.182567 0.190487 0.198404 0.206302 0.214219
0.222134 0.230049 0.237963 0.245857 0.25377 0.261683 0.269595 0.277506 0.285397 0.293307
0.301217 0.309125 0.317033 0.324921 0.332827 0.340732 0.348636 0.356539 0.364424 0.372325
0.380224 0.388123 0.39602 0.4039 0.411795 0.419688 0.42758 0.435471 0.443346 0.451233
0.459119 0.467004 0.474887 0.482755 0.490634 0.498511 0.506387 0.514261 0.522122 0.529992
0.53786 0.545725 0.553589 0.56144 0.569297 0.577152 0.585006 0.592858 0 0.00125759
0.00251635 0.0037767 0.00503878 0.00630268 0.00824152 0.0101837 0.0121292 0.0140826 0.0160513 0.0170297
0.0180118 0.0189978 0.0199876 0.0209814 0.0219803 0.0229918 0.024016 0.0250532 0.0261045 0.026638
0.0271761 0.027721 0.0282729 0.0288337 0.0294051 0.0299874 0.0305857 0.0312004 0.0318343 0.0321632
0.0324938 0.0328259 0.0331591 0.033512 0.0337255 0.0339403 0.0341563 0.0343643 0.0344609 0.0346045
0.0347454 0.0348839 0.035019 0.0351596 0.0353281 0.0354922 0.0356521 0.0358082 0.0359371 0.0360236
0.0361099 0.0361954 0.0362802 0.0363624 0.0363895 0.0364166 0.0364436 0.0364706 0.0364974 0.0366246
0.03675 0.0368742 0.0369976 0.0371628 0.0372747 0.0373864 0.0374979 0.0376092 0.037711 0.038068
0.0384256 0.0387877 0.0391623 0.0397221 0.0398339 0.039945 0.0400554 0.0401651 0.0402736 0.0407825
0.041292 0.0418231 0.0423459 0.0429291 0.0433699 0.0438256 0.0442851 0.0447297 0.0448733 0.0451572
0.0454395 0.0457204 0.0460013 0.0462825 0.0467104 0.0471232 0.0475294 0.0479319 0.0484415 0.0486251
0.0488066 0.0489864 0.049166 0.0493503 0.0500458 0.0507701 0.0514758 0.0521965 0.0534854 0.0540482
0.0546103 0.0551732 0.0557466 0.0563223 0.0578862 0.0594621 0.0610935 0.062796 0.0646157 0.0657556
0.0668522 0.0678948 0.0689848 0.0705472 0.0713718 0.0721992 0.0730255 0.07385 0.0746911 0.0768509
0.0788641 0.0808152 0.0827763 0.0846907 0.0865021 0.0883065 0.0900834 0.0918423 0.0936183 0.0954327
0.097122 0.0988226 0.100532 0.102242 0.105699 0.109082 0.112419 0.115644 0.118588 0.123867
0.129077 0.134161 0.139053 0.143679 0.152302 0.160822 0.169173 0.177363 0.185405 0.193332
0.201323 0.209311 0.217297 0.22528 0.23322 0.241196 0.249172 0.257147 0.265121 0.273061
0.281031 0.289001 0.296971 0.30494 0.31288 0.320846 0.328812 0.336777 0.344741 0.352681
0.360642 0.368603 0.376562 0.384522 0.39246 0.400416 0.408372 0.416326 0.424279 0.432216
0.440166 0.448115 0.456063 0.464009 0.471943 0.479886 0.487829 0.495769 0.503708 0.511638
0.519574 0.527508 0.535441 0.543372 0.551296 0.559224 0.567149 0.575072 0.582992 0.590908
0.598824 0.606739 0.614652 0.622564 0 0.00126251 0.00252586 0.00379003 0.00505588 0.00632371
0.00825917 0.0101982 0.012141 0.0140916 0.0160569 0.0170348 0.0180165 0.019002 0.0199915 0.020985
0.0219832 0.0229929 0.0240152 0.0250504 0.0261004 0.026635 0.0271732 0.0277169 0.0282667 0.0288256
0.0293928 0.0299666 0.0305503 0.0311484 0.0317787 0.0318045 0.0318304 0.0318563 0.0318822 0.0319062
0.0322064 0.0325078 0.0328102 0.0331134 0.0334285 0.0335754 0.0337223 0.033868 0.034012 0.0341285
0.0342143 0.0342996 0.0343844 0.0344687 0.0345456 0.0346447 0.034743 0.0348403 0.0349367 0.0350356
0.0352452 0.035448 0.0356443 0.0358349 0.0360032 0.0360888 0.0361741 0.0362592 0.0363435 0.0364262
0.0365763 0.0367229 0.0368661 0.0370085 0.0371958 0.0372931 0.0373903 0.0374873 0.0375842 0.0376745
0.0381735 0.038672 0.039169 0.0396769 0.0401277 0.0402362 0.0403436 0.0404509 0.0405597 0.0406303
0.041046 0.0414571 0.0418538 0.0422349 0.0426321 0.0429707 0.0432941 0.0436037 0.0439156 0.044392
0.0445332 0.0446735 0.0448128 0.0449512 0.0450927 0.0456083 0.0461022 0.0465773 0.0470535 0.0475523
0.0479224 0.0482991 0.0486811 0.0490675 0.0493254 0.0494799 0.0496351 0.0497911 0.049948 0.0503039
0.050309 0.050314 0.0503191 0.0503241 0.0503292 0.0509259 0.0515335 0.0521533 0.0526937 0.0534133
0.0546963 0.0559755 0.0572573 0.0585705 0.0598759 0.0603345 0.0607878 0.0612423 0.0617009 0.0621864
0.0624187 0.0626505 0.062882 0.063113 0.0633428 0.0636451 0.0639473 0.0642496 0.0645529 0.0648642
0.0652611 0.0656578 0.0660541 0.066451 0.0668476 0.0674635 0.0680865 0.068717 0.0693441 0.0700146
0.0700893 0.0701638 0.0702383 0.0703128 0.0703879 0.0707369 0.0710845 0.071434 0.071788 0.0721501
0.0722103 0.0722705 0.0723307 0.0723912 0.0724525 0.0727642 0.0730756 0.0733933 0.0737179 0.074054
0.0742966 0.0745404 0.074786 0.0750336 0.0752525 0.0759031 0.0765613 0.0772256 0.0778993 0.0785618
0.0793008 0.0800078 0.0806935 0.0813887 0.0818767 0.082106 0.0823353 0.0825645 0.0827938 0.0830216
0.0840727 0.0851015 0.0861108 0.0871161 0.0888965 0.0894652 0.0900349 0.0906059 0.091178 0.0917485
0.0952088 0.0986306 0.101963 0.105192 0.108155 0.113527 0.118776 0.123801 0.128642 0.133308
0.142107 0.150751 0.159218 0.167517 0.175629 0.183579 0.19156 0.199544 0.207529 0.215516
0.223478 0.231466 0.239453 0.24744 0.255427 0.263389 0.271373 0.279357 0.287341 0.295325
0.303287 0.311269 0.31925 0.327231 0.335211 0.343173 0.351151 0.359129 0.367106 0.375083
0.383044 0.391018 0.398992 0.406964 0.414936 0.422895 0.430865 0.438833 0.446801 0.454768
0.462724 0.470688 0.47865 0.486612 0.494572 0.502523 0.51048 0.518436 0.526391 0.534344
0.54229 0.55024 0.558187 0.566132 0.574075 0.582012 0.589951 0.597888 0.605824 0.613759
0 0.00128274 0.00256623 0.00385118 0.00513787 0.0064263 0.00833851 0.010254 0.0121728 0.0140985
0.016036 0.0170116 0.0179899 0.0189713 0.0199559 0.0209439 0.0219404 0.0229463 0.0239625 0.0249889
0.0260288 0.0261435 0.0262583 0.0263734 0.0264886 0.0265809 0.0269995 0.0274201 0.0278428 0.0282675
0.0286952 0.0292417 0.0297925 0.0303501 0.0309159 0.0315012 0.0316521 0.031803 0.0319542 0.0321056
0.0322166 0.032319 0.0324215 0.0325239 0.0326264 0.0327184 0.03277 0.0328216 0.0328733 0.0329249
0.0329767 0.0332627 0.0335456 0.0338252 0.0341009 0.0342547 0.0342868 0.0343188 0.0343508 0.0343827
0.0344145 0.0346015 0.034785 0.0349661 0.0351468 0.0352176 0.0352366 0.0352554 0.0352742 0.0352929
0.0353134 0.0354158 0.0355173 0.0356174 0.0357158 0.0358131 0.0358889 0.035964 0.0360385 0.0361125
0.036187 0.0363087 0.0364273 0.0365438 0.0366618 0.0368831 0.036907 0.0369309 0.0369547 0.0369784
0.0370021 0.0370212 0.0370403 0.0370593 0.0370784 0.037098 0.0372979 0.0374968 0.0376959 0.0378948
0.0381092 0.0381507 0.0381919 0.0382331 0.0382743 0.038319 0.0384986 0.0386777 0.0388565 0.0390344
0.0392107 0.0394344 0.0396544 0.0398714 0.0400896 0.040308 0.040387 0.0404658 0.0405447 0.0406236
0.0407211 0.0408589 0.0409969 0.0411349 0.0412731 0.041411 0.0418547 0.0422955 0.0427362 0.0431768
0.0436158 0.0438648 0.0441143 0.0443649 0.0446164 0.0446717 0.0449051 0.0451389 0.045373 0.0456076
0.0458435 0.0467485 0.0476642 0.0485936 0.0495361 0.0505029 0.0505999 0.050697 0.0507963 0.0508957
0.0510277 0.0519291 0.05283 0.0537347 0.054644 0.0555754 0.0566381 0.0576914 0.0587363 0.0597897
0.0608722 0.0616702 0.062459 0.0632517 0.0640495 0.0650777 0.0653367 0.065595 0.0658526 0.0661096
0.0663661 0.0674663 0.0685559 0.06964 0.0707184 0.0717935 0.0728792 0.0739586 0.0750376 0.0761159
0.0771929 0.0793499 0.08149 0.0835956 0.0856742 0.0877635 0.0919902 0.0962007 0.100426 0.104733
0.108958 0.117275 0.125604 0.133966 0.142189 0.150208 0.158074 0.165992 0.17391 0.181827
0.189747 0.19762 0.205538 0.213454 0.22137 0.229286 0.237159 0.245071 0.252983 0.260894
0.268805 0.276678 0.284586 0.292493 0.3004 0.308307 0.316179 0.324083 0.331986 0.339889
0.347791 0.355663 0.363562 0.37146 0.379358 0.387255 0.395125 0.403019 0.410913 0.418805
0.426697 0.434565 0.442454 0.450342 0.458229 0.466114 0.47398 0.481862 0.489744 0.497625
0.505504 0.513366 0.521242 0.529118 0.536991 0.544863 0.552719 0.560586 0.568452 0.576318
0.584182 0 0.00128013 0.00256109 0.00384327 0.00512682 0.00641176 0.00831792 0.0102263 0.0121377
0.0140539 0.015978 0.0169446 0.0179127 0.0188823 0.0198537 0.0208268 0.0218004 0.0227792 0.0237634
0.0247524 0.025746 0.0267389 0.0277409 0.0287451 0.0297416 0.0302407 0.0303426 0.0304446 0.0305465
0.0306485 0.0307504 0.0317506 0.0327255 0.0336765 0.0346049 0.0355286 0.0359754 0.0364205 0.0368642
0.0373073 0.0377678 0.0378403 0.0379127 0.0379852 0.0380576 0.0381585 0.038522 0.0388857 0.0392492
0.0396124 0.0399717 0.0408484 0.041725 0.0426021 0.043481 0.0443629 0.0444727 0.0445826 0.0446926
0.0448026 0.0448958 0.0456779 0.0464662 0.0472609 0.0480612 0.0488695 0.0498094 0.0507467 0.0516838
0.0526278 0.053584 0.0548803 0.0562016 0.0575434 0.0589038 0.0617618 0.0621383 0.062515 0.062892
0.0632693 0.0636468 0.0657466 0.0677965 0.069808 0.071837 0.0738809 0.0758693 0.0779225 0.0799801
0.0820414 0.0840937 0.0880667 0.0920343 0.0959933 0.099939 0.103873 0.108294 0.112719 0.117143
0.121565 0.126811 0.130081 0.133349 0.136616 0.139881 0.143143 0.150953 0.158794 0.16664
0.174493 0.182352 0.19016 0.198023 0.205887 0.213752 0.221618 0.229424 0.237288 0.245153
0.253017 0.260881 0.268686 0.276546 0.284404 0.292263 0.30012 0.307926 0.31578 0.323633
0.331486 0.339338 0.347143 0.354992 0.362839 0.370686 0.378533 0.386337 0.39418 0.402022
0.409863 0.417704 0.425507 0.433344 0.44118 0.449015 0.45685 0.464651 0.472482 0.480312
0.488142 0.495971 0.50377 0.511595 0.519419 0.527243 0.535065 0.54286 0.550677 0.558493
0.566308 0.574123 0 0.00127616 0.00255301 0.00383034 0.00510899 0.00638897 0.00828849 0.0101901
0.0120939 0.0140006 0.0159113 0.0178237 0.0197395 0.0216611 0.0235886 0.025527 0.0262548 0.0269812
0.0277046 0.0284251 0.0286713 0.0299677 0.0312535 0.0325257 0.0337807 0.0350257 0.0359359 0.0368424
0.0377453 0.0386466 0.0395381 0.040432 0.0413246 0.042216 0.0431061 0.0439928 0.0457723 0.0475609
0.0493581 0.0511633 0.0529842 0.054814 0.0566468 0.0584917 0.0603448 0.0622066 0.0630777 0.0639499
0.0648231 0.0656972 0.0666905 0.0676722 0.0686556 0.0696409 0.0706281 0.0716171 0.0735186 0.0754229
0.0773301 0.0792416 0.0811568 0.0849865 0.0888146 0.0926461 0.0964805 0.100316 0.107976 0.115645
0.123311 0.130981 0.138679 0.146408 0.154132 0.161858 0.169587 0.177319 0.185062 0.192798
0.200534 0.20827 0.216006 0.22375 0.231487 0.239225 0.246962 0.2547 0.262445 0.270184
0.277922 0.285661 0.293401 0.301146 0.308886 0.316626 0.324365 0.332105 0.339851 0.347591
0.355332 0.363072 0.370813 0.378557 0.386298 0.394039 0.401779 0.40952 0.417264 0.425005
0.432745 0.440485 0.448225 0.455968 0.463708 0.471448 0.479187 0.486927 0.494668 0.502408
0.510147 0.517885 0.525622 0.533361 0.541099 0.548836 0.556573 0.56431 0 0.00127304
0.0025465 0.00382055 0.00509526 0.00637066 0.0101558 0.0139532 0.0177515 0.0215469 0.0253494 0.0255404
0.0257313 0.025922 0.0261126 0.0262931 0.0279856 0.0296701 0.0313469 0.033016 0.0346909 0.0365391