# vtk DataFile Version 2.0
tracks
ASCII
DATASET POLYDATA
POINTS 2610 float
-1.001 -0.05 0.0011 -0.900789 -0.0500215 0.00109733 -0.800577 -0.050043 0.00109466 -0.700366 -0.0500645
0.001092 -0.600155 -0.0500858 0.00108935 -0.499943 -0.0501072 0.0010867 -0.424945 -0.0501112 0.0010791
-0.349947 -0.050152 0.00106914 -0.274949 -0.0501924 0.00105928 -0.19995 -0.0502325 0.00104951 -0.124952
-0.0502722 0.00103983 -0.0499538 -0.0502819 0.0010401 0.0250446 -0.0502915 0.0010488 0.100043 -0.0503012
0.00105758 0.175041 -0.050311 0.00106642 0.25004 -0.0503209 0.00107535 0.400037 -0.0503152 0.00109141
0.550035 -0.0503133 0.00110562 0.700032 -0.0503113 0.00112001 0.85003 -0.0503093 0.0011346 1.00003
-0.0503073 0.00114937 1.15003 -0.0503181 0.00115664 1.30002 -0.0503234 0.00116107 1.45002 -0.0503288
0.00116552 1.60002 -0.0503341 0.00116999 1.75002 -0.0503395 0.00117448 1.90002 -0.0503482 0.00117741
2.05002 -0.0503542 0.00117929 2.20001 -0.0503603 0.00118117 2.35001 -0.0503663 0.00118306 2.50001
-0.0503724 0.00118495 2.65001 -0.0503805 0.00118605 2.80001 -0.0503881 0.00118669 2.95001 -0.0503957
0.00118733 3.10001 -0.0504033 0.00118797 3.25001 -0.0504109 0.00118861 3.40001 -0.0504188 0.00118894
3.55001 -0.0504271 0.00118948 3.70001 -0.0504354 0.00119002 3.85001 -0.0504437 0.00119056 4.00001
-0.050452 0.0011911 4.15 -0.0504599 0.00119122 4.3 -0.0504689 0.00119187 4.45 -0.050478
0.00119252 4.6 -0.050487 0.00119317 4.75 -0.0504961 0.00119382 4.9 -0.0505038 0.00119385
5.05 -0.0505133 0.00119468 5.2 -0.0505228 0.0011955 5.35 -0.0505323 0.00119633 5.5
-0.0505418 0.00119716 5.65 -0.0505494 0.00119714 5.8 -0.0505592 0.00119814 5.95 -0.050569
0.00119915 6.1 -0.0505788 0.00120016 6.25 -0.0505886 0.00120117 6.4 -0.0505962 0.00120112
6.55 -0.0506062 0.00120228 6.7 -0.0506162 0.00120344 6.85 -0.0506262 0.0012046 7
-0.0506363 0.00120576 7.15 -0.0506438 0.00120568 7.3 -0.0506539 0.00120697 7.45 -0.0506641
0.00120825 7.6 -0.0506743 0.00120954 7.75 -0.0506845 0.00121083 7.9 -0.0506919 0.00121073
8.05 -0.0507022 0.00121212 8.2 -0.0507125 0.00121352 8.35 -0.0507228 0.00121491 8.5
-0.0507331 0.00121631 8.65 -0.0507405 0.00121621 8.8 -0.0507508 0.0012177 8.95 -0.0507612
0.00121918 9.1 -0.0507716 0.00122067 9.25 -0.050782 0.00122217 9.4 -0.0507893 0.00122205
9.55 -0.0508462 0.00122448 9.7 -0.0509549 0.00122787 9.85 -0.0511153 0.00123222 10
-0.0513275 0.00123755 -1.001 -0.05 0.0537316 -0.900807 -0.0501071 0.0535769 -0.800614 -0.0502146
0.0533951 -0.700421 -0.0503459 0.0531801 -0.600229 -0.0505086 0.0529303 -0.500035 -0.0507026 0.0526458
-0.425004 -0.0509511 0.052427 -0.349973 -0.0512888 0.0521428 -0.274943 -0.0516745 0.0518798 -0.199912
-0.0520949 0.0516588 -0.124879 -0.0525012 0.0515193 -0.0498863 -0.0527743 0.0515579 0.0251065 -0.053003
0.0517236 0.100099 -0.0532275 0.0519573 0.175092 -0.0534617 0.0522387 0.250087 -0.0536911 0.0525548
0.400077 -0.0540939 0.0531876 0.550067 -0.0544904 0.0537031 0.700057 -0.0548433 0.0541706 0.850047
-0.0551527 0.0545899 1.00003 -0.0554268 0.0549603 1.14788 -0.0558033 0.0552433 1.29572 -0.0561466
0.0555072 1.44356 -0.056487 0.0557371 1.5914 -0.0568246 0.0559329 1.70937 -0.0570918 0.0560619
1.7175 -0.057111 0.0560696 1.72563 -0.0571302 0.0560772 1.73376 -0.0571495 0.0560848 1.74189
-0.0571689 0.0560923 1.75002 -0.0571883 0.0560997 1.90002 -0.057549 0.0562359 2.05002 -0.0579049
0.0563546 2.20001 -0.0582566 0.0564557 2.35001 -0.0586042 0.056539 2.50001 -0.0589476 0.0566045
2.65001 -0.059297 0.0566592 2.80001 -0.0596448 0.0567067 2.95001 -0.0599916 0.0567464 3.10001
-0.0603375 0.0567784 3.25001 -0.0606824 0.0568025 3.40001 -0.0610297 0.0568218 3.55001 -0.0613768
0.05684 3.70001 -0.0617224 0.0568562 3.85001 -0.0620665 0.0568701 4.00001 -0.0624092 0.056882
4.15 -0.0627512 0.0568917 4.3 -0.0630952 0.056902 4.45 -0.0634378 0.0569116 4.6
-0.0637789 0.0569203 4.75 -0.0641184 0.0569281 4.9 -0.0644549 0.0569338 5.05 -0.0647949
0.0569412 5.2 -0.0651335 0.0569482 5.35 -0.0654707 0.0569546 5.5 -0.0658066 0.0569606
5.65 -0.0661376 0.0569641 5.8 -0.0664732 0.05697 5.95 -0.0668075 0.0569756 6.1
-0.0671406 0.0569808 6.25 -0.0674726 0.0569857 6.4 -0.0677985 0.0569878 6.55 -0.0681297
0.0569927 6.7 -0.0684597 0.0569974 6.85 -0.0687887 0.057002 7 -0.0691164 0.0570063
7.15 -0.0694375 0.0570073 7.3 -0.0697642 0.0570117 7.45 -0.0700898 0.0570159 7.6
-0.0704144 0.05702 7.75 -0.0707378 0.0570239 7.9 -0.0710539 0.0570243 8.05 -0.0713761
0.0570284 8.2 -0.0716972 0.0570325 8.35 -0.0720172 0.0570365 8.5 -0.0723361 0.0570406
8.65 -0.0726474 0.0570409 8.8 -0.072965 0.057045 8.95 -0.0732814 0.0570491 9.1
-0.0735967 0.0570531 9.25 -0.0739108 0.057057 9.4 -0.074217 0.057057 9.55 -0.0745301
0.057061 9.7 -0.0748426 0.0570651 9.85 -0.0751546 0.0570691 10 -0.0754661 0.0570731
-1.001 -0.05 0.106363 -0.900818 -0.0500793 0.106139 -0.800636 -0.0501565 0.105867 -0.700455
-0.0502607 0.105549 -0.600274 -0.0504355 0.105011 -0.50009 -0.0506807 0.104254 -0.424996 -0.0509684
0.103674 -0.349901 -0.0513177 0.103075 -0.274806 -0.0516729 0.102548 -0.199711 -0.0519745 0.102126
-0.124606 -0.0523217 0.10203 -0.049604 -0.0525778 0.102146 0.025398 -0.0527805 0.102377 0.1004
-0.0529705 0.102688 0.175401 -0.0531809 0.103083 0.250411 -0.0534114 0.103561 0.400346 -0.0538361
0.104553 0.550283 -0.054255 0.10542 0.70022 -0.0546325 0.106201 0.850157 -0.0549773 0.106819
1.00009 -0.055289 0.107273 1.15007 -0.055738 0.107541 1.30006 -0.0560382 0.107841 1.45005
-0.0562865 0.108121 1.60003 -0.0565285 0.108368 1.75002 -0.0567642 0.108583 1.90002 -0.0570768
0.108732 2.05002 -0.0573222 0.10889 2.20001 -0.0575614 0.109032 2.35001 -0.0577978 0.109157
2.50001 -0.0580315 0.109265 2.65001 -0.0583246 0.109339 2.80001 -0.0585721 0.109409 2.95001
-0.0588182 0.109472 3.10001 -0.0590635 0.109527 3.25001 -0.059308 0.109575 3.40001 -0.0595988
0.109613 3.55001 -0.0598496 0.109649 3.70001 -0.0600984 0.109683 3.85001 -0.0603456 0.109715
4 -0.0605913 0.109744 4.15 -0.0608758 0.109774 4.3 -0.0611263 0.109798 4.45
-0.0613749 0.10982 4.6 -0.0616219 0.109842 4.75 -0.0618673 0.109863 4.9 -0.0621451
0.10989 5.05 -0.0623934 0.109907 5.2 -0.06264 0.109923 5.35 -0.0628852 0.10994
5.5 -0.0631289 0.109955 5.65 -0.0634002 0.109979 5.8 -0.0636458 0.109992 5.95
-0.0638899 0.110004 6.1 -0.0641328 0.110016 6.25 -0.0643744 0.110027 6.4 -0.0646397
0.11005 6.55 -0.0648824 0.110059 6.7 -0.0651238 0.110067 6.85 -0.0653641 0.110076
7 -0.0656031 0.110084 7.15 -0.0658626 0.110105 7.3 -0.0661023 0.110111 7.45
-0.0663408 0.110117 7.6 -0.066578 0.110123 7.75 -0.0668142 0.110129 7.9 -0.067068
0.110149 8.05 -0.0673045 0.110153 8.2 -0.0675398 0.110158 8.35 -0.0677739 0.110162
8.5 -0.068007 0.110166 8.65 -0.0682554 0.110186 8.8 -0.0684884 0.110189 8.95
-0.0687201 0.110192 9.1 -0.0689507 0.110194 9.25 -0.0691801 0.110197 9.4 -0.0694227
0.110216 9.55 -0.0696522 0.110217 9.7 -0.0698811 0.110219 9.85 -0.0701094 0.11022
10 -0.0703373 0.110221 -1.001 -0.05 0.158995 -0.900796 -0.0500896 0.158771 -0.800593
-0.0501956 0.158426 -0.700392 -0.0503595 0.157692 -0.600196 -0.0505943 0.156484 -0.499992 -0.050892
0.15465 -0.42472 -0.0515016 0.153056 -0.349437 -0.0519699 0.152145 -0.274149 -0.0523688 0.151594
-0.198861 -0.0527672 0.151312 -0.1237 -0.0530907 0.151376 -0.048781 -0.0532246 0.151545 0.0261371
-0.0533136 0.152025 0.101053 -0.0534629 0.152726 0.175969 -0.0536394 0.153517 0.250944 -0.0538023
0.154338 0.400784 -0.0540299 0.155748 0.550625 -0.0545534 0.156922 0.700468 -0.0550383 0.157676
0.850313 -0.0554475 0.158275 1.00014 -0.0558234 0.15871 1.15012 -0.0563376 0.15896 1.30009
-0.0567024 0.159242 1.45007 -0.0569726 0.159515 1.60005 -0.0571646 0.159775 1.75002 -0.0573504
0.160001 1.90002 -0.0576142 0.160162 2.05002 -0.0578103 0.160332 2.20002 -0.0579933 0.160489
2.35001 -0.0581669 0.16063 2.50001 -0.0583378 0.160755 2.65001 -0.0585686 0.160844 2.80001
-0.0587536 0.160931 2.95001 -0.0589361 0.161011 3.10001 -0.0591168 0.161084 3.25001 -0.0592967
0.161149 3.40001 -0.0595231 0.161205 3.55001 -0.0597094 0.161259 3.70001 -0.0598929 0.161311
3.85001 -0.060074 0.161362 4 -0.0602535 0.16141 4.15 -0.0604718 0.161459 4.3
-0.0606563 0.161502 4.45 -0.0608381 0.161544 4.6 -0.0610176 0.161586 4.75 -0.0611955
0.161626 4.9 -0.0614056 0.161672 5.05 -0.0615864 0.161709 5.2 -0.0617649 0.161746
5.35 -0.0619415 0.161782 5.5 -0.0621166 0.161817 5.65 -0.0623188 0.161861 5.8
-0.0624958 0.161893 5.95 -0.0626708 0.161925 6.1 -0.062844 0.161957 6.25 -0.0630161
0.161988 6.4 -0.0632112 0.16203 6.55 -0.0633844 0.162059 6.7 -0.0635557 0.162088
6.85 -0.0637254 0.162116 7 -0.063894 0.162143 7.15 -0.0640825 0.162184 7.3
-0.0642517 0.16221 7.45 -0.0644193 0.162236 7.6 -0.0645853 0.162261 7.75 -0.0647503
0.162286 7.9 -0.0649324 0.162326 8.05 -0.0650977 0.16235 8.2 -0.0652614 0.162373
8.35 -0.0654237 0.162397 8.5 -0.065585 0.16242 8.65 -0.065761 0.162459 8.8
-0.0659223 0.162481 8.95 -0.0660818 0.162504 9.1 -0.0662399 0.162525 9.25 -0.0663968
0.162547 9.4 -0.0665664 0.162585 9.55 -0.0667234 0.162605 9.7 -0.0668795 0.162625
9.85 -0.0670348 0.162645 10 -0.0671896 0.162665 -1.001 -0.05 0.211626 -0.947636
-0.0500812 0.21147 -0.894272 -0.050167 0.211279 -0.840908 -0.0502576 0.211056 -0.787545 -0.0503926
0.210766 -0.724389 -0.0506368 0.21029 -0.679497 -0.0509154 0.209643 -0.634609 -0.0512516 0.208768
-0.589724 -0.0515919 0.207757 -0.544842 -0.0519373 0.206609 -0.499928 -0.0522894 0.205321 -0.469147
-0.0525878 0.204262 -0.438369 -0.0528965 0.203141 -0.407585 -0.0531891 0.20215 -0.376798 -0.0534671
0.201282 -0.327525 -0.0538967 0.200029 -0.286981 -0.0542349 0.199145 -0.246432 -0.0545742 0.198484
-0.20588 -0.0549186 0.198128 -0.165326 -0.0552268 0.19805 -0.124887 -0.0554625 0.19823 -0.0496146
-0.0557786 0.198956 0.025656 -0.0559276 0.199911 0.100922 -0.0560499 0.20119 0.176186 -0.0562052
0.202546 0.24599 -0.0563411 0.203612 0.247089 -0.0563429 0.203627 0.248188 -0.0563448 0.203641
0.249287 -0.0563466 0.203656 0.250386 -0.0563484 0.20367 0.251486 -0.0563502 0.203685 0.326243
-0.0564738 0.204661 0.401001 -0.056598 0.205511 0.475761 -0.0567227 0.206234 0.550522 -0.0568752
[...]
POINT_DATA 2610
FIELD attributes 4
age 1 2610 float
0 0.0050112 0.0100224 0.0150336 0.0200448 0.025056 0.0288056 0.0325532 0.0363009 0.0400487 0.0437964
0.0475448 0.0512905 0.0550361 0.0587817 0.0625272 0.0700239 0.0775229 0.0850218 0.0925208 0.10002
0.107519 0.115019 0.122519 0.130019 0.137519 0.145019 0.152519 0.160019 0.167518 0.175018
0.182518 0.190018 0.197517 0.205017 0.212517 0.220017 0.227516 0.235016 0.242516 0.250015
0.257515 0.265015 0.272515 0.280014 0.287514 0.295014 0.302514 0.310013 0.317513 0.325013
0.332513 0.340013 0.347512 0.355012 0.362512 0.370012 0.377511 0.385011 0.392511 0.400011
0.407511 0.41501 0.42251 0.43001 0.43751 0.44501 0.452509 0.460009 0.467509 0.475008
0.482509 0.490008 0.497508 0.505008 0.512507 0.520008 0.527507 0.535005 0.542502 0.549999
0 0.00502584 0.0100529 0.0150741 0.0200871 0.0250921 0.0288311 0.0325642 0.0362906 0.0400103
0.0437237 0.0474299 0.0511293 0.0548268 0.0585242 0.0622234 0.0696343 0.0770703 0.084521 0.0919864
0.0994663 0.106852 0.114239 0.121628 0.129017 0.134915 0.135321 0.135728 0.136134 0.136541
0.136947 0.144447 0.151947 0.159446 0.166945 0.174443 0.181941 0.189438 0.196935 0.204432
0.211928 0.219425 0.226922 0.234419 0.241915 0.249412 0.25691 0.264407 0.271904 0.279402
0.286899 0.294397 0.301895 0.309393 0.316891 0.324389 0.331887 0.339386 0.346884 0.354382
0.361881 0.36938 0.376878 0.384377 0.391876 0.399375 0.406874 0.414373 0.421873 0.429372
0.436871 0.444372 0.451871 0.459371 0.466871 0.474371 0.481871 0.489371 0.496872 0.504372
0.511873 0.519374 0.526874 0.534375 0.541876 0.549376 0 0.00502782 0.0100574 0.0150813
0.0200986 0.0251096 0.0288565 0.0325964 0.0363271 0.0400529 0.043769 0.0474738 0.0511728 0.0548707
0.0585678 0.0622643 0.0696628 0.0770883 0.0845318 0.0919971 0.099484 0.106986 0.11449 0.121997
0.129505 0.137014 0.144528 0.152037 0.159545 0.167052 0.174558 0.18207 0.189576 0.197081
0.204586 0.21209 0.219601 0.227106 0.23461 0.242115 0.24962 0.257132 0.264636 0.272141
0.279647 0.287152 0.294664 0.302169 0.309675 0.31718 0.324686 0.332198 0.339704 0.34721
0.354715 0.362221 0.369735 0.377241 0.384747 0.392253 0.399759 0.407273 0.414779 0.422286
0.429792 0.437299 0.444813 0.45232 0.459826 0.467333 0.47484 0.482355 0.489862 0.497369
0.504877 0.512384 0.519899 0.527407 0.534915 0.542422 0.54993 0 0.00502993 0.0100659
0.0150989 0.0201261 0.0251484 0.0289138 0.0326676 0.0364094 0.0401409 0.0438557 0.0475507 0.0512403
0.054929 0.0586168 0.0623082 0.0696956 0.077119 0.0845727 0.0920426 0.0995336 0.107045 0.114557
0.122075 0.129596 0.137119 0.144647 0.152169 0.159692 0.167214 0.174735 0.182262 0.189783
0.197302 0.204822 0.212342 0.219868 0.227387 0.234907 0.242426 0.249946 0.257473 0.264992
0.272512 0.280032 0.287552 0.29508 0.3026 0.31012 0.317641 0.325161 0.332689 0.34021
0.34773 0.355251 0.362772 0.3703 0.377821 0.385342 0.392863 0.400385 0.407913 0.415435
0.422956 0.430478 0.438 0.445529 0.453051 0.460573 0.468095 0.475617 0.483146 0.490669
0.498191 0.505713 0.513236 0.520766 0.528289 0.535811 0.543334 0.550857 0 0.00268242
0.00536652 0.00805229 0.0107374 0.0139131 0.016169 0.0184244 0.020679 0.0229329 0.0251876 0.0267304
0.0282711 0.0298088 0.0313436 0.033794 0.0358026 0.0378056 0.0398033 0.0417956 0.0437768 0.0474556
0.0511359 0.0548176 0.0585058 0.0619364 0.0619906 0.0620447 0.0620988 0.062153 0.0622071 0.0658897
0.0695823 0.0732848 0.0769976 0.0807204 0.081324 0.0819275 0.0825312 0.0831349 0.0837232 0.0868687
0.0900168 0.0931674 0.0963205 0.0994756 0.106995 0.114516 0.122041 0.129572 0.137107 0.144649
0.152185 0.159721 0.167257 0.174792 0.182334 0.189868 0.197402 0.204937 0.21247 0.220011
0.227545 0.235078 0.242612 0.250146 0.257687 0.265221 0.272756 0.28029 0.287824 0.295366
0.302901 0.310435 0.31797 0.325505 0.333047 0.340582 0.348117 0.355653 0.363188 0.37073
0.378266 0.385801 0.393337 0.400873 0.408416 0.415952 0.423488 0.431024 0.43856 0.446104
0.45364 0.461176 0.468713 0.476249 0.483793 0.49133 0.498867 0.506404 0.513941 0.521485
0.529022 0.53656 0.544097 0.551634 0 0.00126439 0.00252917 0.00379462 0.00506086 0.00632792
0.0101152 0.0139109 0.0177181 0.0215317 0.0253277 0.0269187 0.0284995 0.0300733 0.0316399 0.0330598
0.0333735 0.0336868 0.0339999 0.0343128 0.0346255 0.0364533 0.038274 0.0400858 0.0418924 0.0436897
0.0454898 0.0472949 0.0491121 0.0509342 0.0527605 0.0528319 0.0529032 0.0529746 0.0530459 0.0531189
0.0548782 0.0566405 0.058406 0.0601745 0.061946 0.0656423 0.0693554 0.0730862 0.0768276 0.0805776
0.0843403 0.088102 0.0918644 0.0956294 0.0993968 0.106931 0.114466 0.122006 0.12955 0.137099
0.144663 0.152214 0.159765 0.167316 0.174867 0.182427 0.189977 0.197527 0.205076 0.212626
0.220183 0.227733 0.235282 0.242831 0.250381 0.257939 0.265488 0.273038 0.280588 0.288138
0.295696 0.303246 0.310796 0.318346 0.325897 0.333456 0.341006 0.348556 0.356107 0.363658
0.371217 0.378768 0.386318 0.393869 0.40142 0.40898 0.416531 0.424082 0.431633 0.439185
0.446745 0.454296 0.461847 0.469399 0.476951 0.484511 0.492063 0.499615 0.507167 0.514719
0.522279 0.529831 0.537383 0.544935 0.552487 0 0.00126538 0.00253128 0.00379769 0.00506461
0.00633207 0.00822634 0.010123 0.0120221 0.013924 0.015828 0.0177453 0.0196674 0.0215905 0.0235167
0.0254551 0.026426 0.0273942 0.0283581 0.0293175 0.0302766 0.0307559 0.0312335 0.0317091 0.0321824
0.0327042 0.0331546 0.0336031 0.0340497 0.0344943 0.0349364 0.0358464 0.036753 0.0376556 0.038554
0.0394435 0.0403323 0.0412196 0.0421063 0.0429926 0.0438797 0.0451247 0.0463753 0.0476319 0.0488939
0.0489787 0.0497572 0.0505372 0.051319 0.0521023 0.0528867 0.0547153 0.0565577 0.0584115 0.0602719
0.0621329 0.0640039 0.065876 0.06775 0.0696266 0.0715072 0.0733949 0.0752773 0.0771559 0.0790362
0.0809216 0.0840734 0.0872293 0.0903871 0.0935465 0.0962204 0.0969569 0.0976936 0.0984304 0.0991673
0.0999043 0.107493 0.115084 0.122679 0.13028 0.137885 0.145517 0.153123 0.160724 0.168324
0.175924 0.183545 0.191143 0.19874 0.206336 0.213932 0.221549 0.229144 0.236739 0.244334
0.251929 0.259544 0.267139 0.274733 0.282328 0.289923 0.297536 0.30513 0.312724 0.320319
0.327913 0.335525 0.343119 0.350713 0.358307 0.365901 0.373512 0.381106 0.388699 0.396293
0.403887 0.411496 0.419089 0.426683 0.434276 0.44187 0.449477 0.457071 0.464664 0.472257
0.47985 0.487457 0.49505 0.502642 0.510235 0.517828 0.525433 0.533025 0.540618 0.54821
0.555803 0 0.00126274 0.00252615 0.00379059 0.00505619 0.00632297 0.00823287 0.0101448 0.0120604
0.0139794 0.0159037 0.0178208 0.0197508 0.0216936 0.0236491 0.025627 0.0266267 0.0276272 0.0286279
0.0296278 0.0306394 0.0308874 0.0311355 0.0313831 0.0316288 0.0318191 0.0325684 0.0333051 0.0340288
0.0347388 0.0354403 0.0358867 0.0363314 0.0367746 0.0372163 0.037652 0.0380888 0.0385229 0.0389545
0.0393854 0.0398142 0.0402458 0.0406775 0.0411093 0.0415418 0.0419769 0.0424121 0.0428468 0.043282
0.0437182 0.0441565 0.0450331 0.0459193 0.0468163 0.0477231 0.0486466 0.0493206 0.0499942 0.0506698
0.0513481 0.0521694 0.0524002 0.0526313 0.0528625 0.0530939 0.0533257 0.0542781 0.0552282 0.0561807
0.0571378 0.0580965 0.0590635 0.0600302 0.0609978 0.061968 0.0629396 0.064902 0.0668593 0.0688117
0.0707681 0.0727083 0.0746368 0.076578 0.0785321 0.0804914 0.082457 0.086411 0.0903579 0.0942807
0.0981876 0.102099 0.109923 0.117715 0.125438 0.133102 0.140771 0.14847 0.156147 0.163819
0.171487 0.179153 0.186835 0.1945 0.202162 0.209823 0.217483 0.225158 0.232817 0.240476
0.248133 0.255789 0.26346 0.271117 0.278773 0.286427 0.294082 0.301749 0.309403 0.317057
0.324709 0.332362 0.340025 0.347677 0.355329 0.362979 0.370629 0.378289 0.38594 0.393589
0.401237 0.408886 0.416543 0.424191 0.431838 0.439484 0.447131 0.454785 0.462431 0.470077
0.477721 0.485366 0.493017 0.500662 0.508305 0.515947 0.52359 0.531238 0.53888 0.546522
0.554163 0.561804 0 0.00126436 0.00252936 0.00379502 0.00506132 0.00632886 0.00824579 0.0101651
0.0120878 0.0140166 0.0159577 0.0169276 0.0179005 0.0188765 0.0198557 0.020838 0.0218255 0.0228211
0.0238257 0.0248392 0.0258631 0.0263806 0.0268998 0.0274227 0.0279492 0.028482 0.0287709 0.0290612
0.0293538 0.029649 0.0297471 0.030048 0.0303503 0.0306534 0.0309564 0.0312676 0.0313612 0.0314547
0.0315483 0.0316422 0.0317114 0.0317488 0.0317861 0.0318235 0.0318608 0.0318962 0.03206 0.0322236
0.0323871 0.0325505 0.0327151 0.0328936 0.0330717 0.0332492 0.0334239 0.0335529 0.0336585 0.0337634
0.0338678 0.0339713 0.0340762 0.0341849 0.034292 0.0343978 0.0345026 0.0345884 0.0346446 0.0347005
0.0347561 0.0348113 0.0348653 0.0349625 0.0350592 0.0351555 0.0352514 0.035345 0.0354678 0.0355892
0.035709 0.0358277 0.0360224 0.0361215 0.0362201 0.0363185 0.0364167 0.0365053 0.0365913 0.0366773
0.0367634 0.0368493 0.0370073 0.0371295 0.0372514 0.0373732 0.0374948 0.0376147 0.0378331 0.0380499
0.0382667 0.0384841 0.038698 0.0389157 0.0391327 0.03935 0.0395678 0.0397855 0.0400061 0.040225
0.0404441 0.0406635 0.0408837 0.0411037 0.0413233 0.0415434 0.0417643 0.0419875 0.0422119 0.0424346
0.0426576 0.0428812 0.0431058 0.0434099 0.0437153 0.0440252 0.04434 0.0445021 0.0446887 0.0448759
0.0450635 0.0452516 0.0454414 0.045929 0.0464085 0.0468878 0.0473624 0.0478607 0.0483798 0.0488886
0.0493989 0.049914 0.0504375 0.0504631 0.0504887 0.0505143 0.0505399 0.0505653 0.051614 0.0527007
0.0538341 0.0549353 0.0560516 0.057253 0.0584348 0.0596188 0.060808 0.0619952 0.0622803 0.0625651
0.0628498 0.0631346 0.0634445 0.0643435 0.0652327 0.0661204 0.0670109 0.0680097 0.0680463 0.0680829
0.0681195 0.068156 0.0681924 0.0693522 0.0704923 0.0716304 0.0727664 0.073895 0.0750404 0.076207
0.0773767 0.0785477 0.0797215 0.0808443 0.0819678 0.0830956 0.0842272 0.0855164 0.0866556 0.0877876
0.0889126 0.0900307 0.0911407 0.0956319 0.1001 0.104502 0.108815 0.113004 0.121188 0.12931
0.137362 0.145344 0.153233 0.160996 0.168757 0.176516 0.184273 0.192026 0.199777 0.207527
0.215275 0.223021 0.230765 0.234543 0.23832 0.242097 0.245874 0.24967 0.253629 0.257588
0.261547 0.265506 0.269465 0.277199 0.284938 0.292677 0.300416 0.308156 0.315882 0.323621
0.33136 0.339099 0.346839 0.354558 0.362297 0.370036 0.377774 0.385514 0.393226 0.400964
0.408703 0.416441 0.42418 0.431886 0.439624 0.447362 0.4551 0.462838 0.470538 0.478275
0.486012 0.493749 0.501486 0.509181 0.516917 0.524653 0.532389 0.540124 0.547814 0.555547
0.563281 0.571014 0.578749 0 0.00125407 0.00250907 0.00376539 0.00502314 0.00628245 0.00821365
0.0101475 0.0120842 0.0140279 0.0159859 0.0169585 0.0179349 0.0189154 0.0198999 0.0208886 0.021883
0.022888 0.0239048 0.0249333 0.0259747 0.0265032 0.0270349 0.0275733 0.0281184 0.0286725 0.0292378
0.0298109 0.0303968 0.0309966 0.0316229 0.0319416 0.03226 0.0325793 0.0328996 0.0332344 0.0332983
0.0333622 0.0334261 0.0334901 0.0335433 0.0336255 0.0337064 0.0337861 0.0338651 0.0339299 0.0341026
0.0342719 0.034438 0.0346005 0.0347682 0.0349097 0.0350486 0.0351848 0.0353178 0.0354362 0.0355573
0.0356778 0.0357977 0.035916 0.0360284 0.036145 0.0362585 0.0363691 0.0364791 0.0366242 0.0367317
0.036839 0.0369461 0.037053 0.037151 0.0373374 0.0375239 0.0377132 0.0379051 0.0382797 0.0385292
0.0387814 0.0390311 0.0392785 0.0395204 0.0399822 0.0404378 0.04089 0.0413393 0.0417839 0.0422412
0.042683 0.0431282 0.0435764 0.0440277 0.0445016 0.0449698 0.0454479 0.0459301 0.0464209 0.0471529
0.0479011 0.0486607 0.0494344 0.0495455 0.0499894 0.0504327 0.0508751 0.0513168 0.051761 0.0528907
0.0540181 0.0551685 0.056338 0.0575446 0.0588098 0.0600483 0.0612722 0.0625042 0.0637344 0.0644754
0.065209 0.0659422 0.0666721 0.0675417 0.0680212 0.0685012 0.0689816 0.0694624 0.0699425 0.0703917
0.0708418 0.0712922 0.0717431 0.0722357 0.072399 0.0725622 0.0727254 0.0728886 0.0730516 0.0736745
0.0742948 0.0749148 0.0755335 0.0761484 0.0773881 0.0786295 0.0798785 0.0811271 0.0823747 0.084855
0.0873402 0.0897969 0.0922168 0.0946052 0.0988384 0.103039 0.107141 0.111143 0.117776 0.1192
0.120621 0.122041 0.123459 0.124986 0.131972 0.138883 0.145668 0.152331 0.158872 0.166633
0.174414 0.182194 0.189972 0.19775 0.205496 0.213272 0.221048 0.228823 0.236599 0.244333
0.252106 0.25988 0.267654 0.275428 0.283154 0.290927 0.298699 0.306473 0.314246 0.321965
0.329736 0.337508 0.34528 0.353053 0.360765 0.368535 0.376306 0.384077 0.391849 0.399554
0.407324 0.415093 0.422863 0.430633 0.438333 0.446101 0.453869 0.461637 0.469406 0.4771
0.484866 0.492632 0.500399 0.508166 0.515855 0.523619 0.531384 0.539149 0.546913 0.554597
0.562357 0.570118 0.577879 0.585641 0 0.00125898 0.00251864 0.00377898 0.00504073 0.00630412
0.00823271 0.0101642 0.0120987 0.0140405 0.0159964 0.0169692 0.0179461 0.018927 0.0199122 0.0209017
0.021896 0.0229009 0.0239175 0.0249459 0.0259871 0.026516 0.0270477 0.0275852 0.0281294 0.0286829
0.0292457 0.0298161 0.030396 0.0309884 0.0316103 0.0319263 0.0322429 0.0325598 0.0328767 0.0332061
0.0334418 0.0336761 0.0339085 0.034135 0.0342317 0.0343369 0.0344409 0.0345437 0.0346455 0.03475
0.0349496 0.0351424 0.0353287 0.0355092 0.035664 0.0357437 0.0358231 0.0359018 0.0359796 0.0360557
0.0360709 0.0360861 0.0361013 0.0361165 0.0361323 0.0362647 0.0363959 0.0365259 0.0366548 0.0368394
0.0369143 0.0369891 0.0370638 0.0371384 0.0372092 0.0376661 0.0381286 0.0386045 0.0390883 0.0395013
0.039962 0.0404115 0.0408602 0.0413113 0.0417703 0.0422459 0.0427114 0.0431745 0.0436398 0.0441126
0.0446039 0.0450854 0.0455643 0.0460486 0.0465446 0.0475806 0.048638 0.0497088 0.050795 0.0512168
0.0513574 0.0514979 0.0516381 0.0517783 0.0519187 0.0530507 0.0542029 0.0553841 0.0565882 0.0578131
0.0590781 0.0603269 0.0615667 0.0628166 0.0640597 0.0646851 0.0652957 0.065904 0.0665099 0.067122
0.0677463 0.0683617 0.0689766 0.0695923 0.0702066 0.0711399 0.0720755 0.0730099 0.0739428 0.0757431
0.0758835 0.076024 0.0761645 0.0763051 0.0764458 0.0768578 0.077269 0.0776799 0.078091 0.0785215
0.0793534 0.080187 0.0810221 0.0818589 0.0826979 0.0851891 0.0876669 0.09013 0.092541 0.0949258
0.0995706 0.104163 0.108658 0.113057 0.117867 0.122962 0.128008 0.132988 0.137906 0.150089
0.1519 0.153702 0.155495 0.15728 0.159056 0.166813 0.174572 0.182329 0.190085 0.19784
0.205581 0.213334 0.221087 0.22884 0.236593 0.244323 0.252074 0.259826 0.267577 0.275329
0.283051 0.290802 0.298553 0.306304 0.314055 0.32177 0.32952 0.337271 0.345021 0.352772
0.36048 0.36823 0.37598 0.383729 0.39148 0.399182 0.40693 0.414679 0.422428 0.430177
0.437874 0.445621 0.453369 0.461117 0.468865 0.476556 0.484302 0.492048 0.499795 0.507542
0.515228 0.522973 0.530718 0.538463 0.546208 0.553888 0.56163 0.569372 0.577114 0.584857
0 0.00127988 0.0025604 0.00384217 0.00512541 0.00641015 0.00831649 0.0102253 0.0121369 0.014055
0.0159851 0.0169571 0.0179321 0.0189105 0.0198923 0.0208776 0.0218717 0.0228748 0.0238877 0.0249105
0.0259456 0.0263951 0.0268462 0.0273009 0.0277591 0.0278802 0.0280239 0.0281678 0.0283118 0.0284559
0.0286002 0.0291435 0.0296911 0.0302457 0.0308092 0.0313936 0.0313957 0.0313977 0.0313997 0.0314018
0.0314038 0.0314735 0.0315432 0.0316129 0.0316825 0.0317437 0.0319639 0.032184 0.0324039 0.0326238
0.0328471 0.032931 0.0330147 0.0330984 0.0331818 0.0332535 0.0334606 0.0336668 0.0338718 0.0340737
0.0342817 0.0343414 0.0344008 0.0344597 0.0345183 0.0345698 0.034581 0.0345921 0.0346032 0.0346143
0.0346252 0.0348369 0.0350441 0.0352471 0.0354423 0.0356286 0.035654 0.0356794 0.0357046 0.0357298
0.0357557 0.0358516 0.0359466 0.0360407 0.0361362 0.0362725 0.0363687 0.0364643 0.0365592 0.0366531
0.0367445 0.0368564 0.0369674 0.0370779 0.0371885 0.0373535 0.0374425 0.0375314 0.0376204 0.0377101
0.0377981 0.03801 0.03822 0.0384299 0.0386391 0.0388509 0.0390706 0.0392858 0.0394966 0.0397077
0.0399214 0.0401374 0.0403516 0.0405647 0.0407783 0.0409951 0.0412164 0.0414342 0.0416502 0.0418665
0.042084 0.0423027 0.0425199 0.0427367 0.0429539 0.0431729 0.0436183 0.0440638 0.0445125 0.0449646
0.0454254 0.045904 0.0463712 0.0468305 0.0472928 0.0477684 0.0482522 0.0487339 0.049216 0.0497021
0.0501965 0.0512141 0.0522383 0.053277 0.0543728 0.0554822 0.0557749 0.0560679 0.0563617 0.0566565
0.0569649 0.0578282 0.0586908 0.0595528 0.0604185 0.061294 0.0624929 0.0636713 0.0648548 0.0660509
0.0672399 0.0684619 0.0696592 0.0708429 0.0720153 0.0731803 0.0736556 0.0741297 0.0746043 0.0750795
0.0755797 0.0756932 0.0758067 0.0759201 0.0760337 0.0761476 0.0767252 0.0773037 0.0778833 0.0784638
0.0790426 0.0813825 0.0837241 0.0860613 0.0883722 0.0906666 0.0951933 0.0997731 0.104233 0.108554
0.112774 0.1211 0.129395 0.137619 0.145669 0.153549 0.161293 0.169037 0.176777 0.184514
0.192248 0.199978 0.207708 0.215436 0.223163 0.230888 0.235543 0.240198 0.244852 0.249506
0.254147 0.257216 0.260285 0.263353 0.266422 0.269491 0.277207 0.284926 0.292645 0.300365
0.308084 0.315793 0.323512 0.331232 0.338951 0.346671 0.354374 0.362093 0.369812 0.377531
0.385251 0.392948 0.400666 0.408385 0.416104 0.423823 0.431514 0.439233 0.446951 0.454669
0.462388 0.470074 0.477791 0.485509 0.493227 0.500945 0.508626 0.516342 0.524059 0.531776
0.539492 0.547168 0.554882 0.562597 0.570312 0.578028 0 0.00127749 0.0025557 0.00383501
0.0051156 0.00639748 0.00829898 0.0102024 0.0121087 0.0140198 0.015939 0.0169031 0.0178691 0.018837
0.0198072 0.0207796 0.0217533 0.022732 0.0237159 0.0247045 0.0256968 0.0266874 0.0276844 0.0286896
0.0296901 0.0306984 0.030777 0.0308556 0.0309341 0.0310124 0.0310846 0.0320032 0.0329023 0.0337811
0.0346389 0.0354941 0.0359418 0.0363871 0.0368304 0.0372726 0.0377094 0.0381478 0.0385836 0.0390185
0.0394528 0.0398812 0.0403142 0.0407472 0.0411806 0.0416144 0.0420488 0.0424849 0.04292 0.0433559
0.0437928 0.0442315 0.0451095 0.0459959 0.0468889 0.0477894 0.0487149 0.0496613 0.0506005 0.0515332
0.0524728 0.0534214 0.0541205 0.0548244 0.0555303 0.0562379 0.057307 0.0574996 0.0576924 0.0578854
0.0580785 0.0582717 0.0592541 0.0602356 0.0612177 0.0621996 0.0631811 0.0651781 0.0671622 0.0691373
0.0711216 0.0731029 0.0750613 0.077044 0.0790411 0.0810421 0.0830478 0.087068 0.0911021 0.0951011
0.0990542 0.103004 0.105624 0.108248 0.110881 0.113509 0.116578 0.121807 0.127006 0.132172
0.137308 0.142414 0.150126 0.15784 0.165551 0.17326 0.180966 0.188662 0.196363 0.204063
0.211762 0.219459 0.227148 0.234842 0.242534 0.250226 0.257917 0.265602 0.27329 0.280977
0.288664 0.29635 0.304031 0.311715 0.319398 0.32708 0.334761 0.342439 0.350118 0.357797
0.365474 0.373152 0.380826 0.388501 0.396176 0.40385 0.411523 0.419194 0.426866 0.434537
0.442207 0.449877 0.457545 0.465213 0.472881 0.480548 0.488214 0.49588 0.503545 0.511209
0.518873 0.526535 0.534197 0.541858 0.54952 0.55718 0.564841 0 0.00127407 0.00254875
0.00382388 0.00510024 0.00637782 0.00827367 0.0101716 0.0120719 0.0139752 0.0158826 0.0177918 0.0197062
0.0216255 0.0235495 0.0254814 0.0264522 0.02742 0.0283829 0.0293409 0.0299859 0.0309986 0.0320037
0.0329984 0.0339829 0.0349558 0.0358646 0.0367701 0.0376714 0.0385698 0.0394593 0.0403498 0.0412388
0.0421267 0.0430136 0.0439 0.0456771 0.0474715 0.0492802 0.0510986 0.0529332 0.0537608 0.0545895
0.0554202 0.0562528 0.0575255 0.0584586 0.0593937 0.0603307 0.0612698 0.0622103 0.0640854 0.0659632
0.0678437 0.0697268 0.0716119 0.0735074 0.0753943 0.0772822 0.0791716 0.081062 0.0848571 0.0886513
0.0924503 0.0962539 0.100073 0.107777 0.115486 0.123148 0.130769 0.138406 0.146057 0.153705
0.161352 0.168997 0.17664 0.184288 0.191933 0.199576 0.207217 0.214858 0.222501 0.230141
0.237781 0.245419 0.253056 0.260696 0.268334 0.27597 0.283606 0.291241 0.298879 0.306514
0.314148 0.321782 0.329414 0.33705 0.344683 0.352315 0.359946 0.367576 0.375209 0.38284
0.39047 0.398099 0.405727 0.413358 0.420986 0.428614 0.436241 0.443868 0.451496 0.459123
0.466748 0.474374 0.481998 0.489625 0.497249 0.504873 0.512496 0.520118 0.527742 0.535365
0.542986 0.550608 0.558229 0 0.00127139 0.00254317 0.00381548 0.00508837 0.00636187 0.0101412
0.0139321 0.0177221 0.0215087 0.0252991 0.0257969 0.0262933 0.0267889 0.0272836 0.0277191 0.0291018
0.0304793 0.0318517 0.033219 0.0345837 0.0364248 0.0382565 0.0400713 0.0418821 0.0436877 0.0454989
0.0473075 0.0491176 0.0509363 0.0527664 0.0546026 0.0564402 0.0582806 0.0601239 0.0619697 0.0656715