# vtk DataFile Version 2.0
sampleSurface
ASCII
DATASET POLYDATA
POINTS 2021 float
-0.500032 0 0.11501 -0.499951 3.38813e-21 0.0392727 -0.789037 8.47033e-21 0.120673 -0.500013 -1.35525e-20
0.193965 1.00003 0 0.0485099 1.00003 0 0.0478584 0.475202 0 0.0353615
0.250044 1.41878e-20 0.0305359 0.2506 -5.42101e-20 0.117067 0.251301 0 0.203885 0.364989
0 0.203772 1.75002 0 0.113255 1.75002 0 0.0564279 2.50001 6.89146e-18
0.059229 2.21354 0 0.250758 2.50001 0 0.252875 3.25001 -3.47927e-17 0.0598775
3.25001 -1.69407e-21 0.253888 4.00001 5.60566e-18 0.0599857 4 0 0.253986 4.75
-1.79088e-17 0.0599988 4.75 8.47033e-22 0.253998 5.5 -2.79246e-17 0.0599999 5.5 -4.23516e-22
0.253999 6.25 1.01187e-17 0.06 6.25 0 0.254 7 2.93732e-17 0.06
7 0 0.254 7.75 -2.65294e-17 0.06 7.75 0 0.254 8.5
1.8923e-17 0.06 8.5 0 0.254 9.25 -2.88552e-17 0.06 9.25 -5.29396e-23
0.254 10 -2.64698e-23 0.254 10 0 0.06 -4.24997 0 0.0599042
-5 0 0.0599861 -5 0 0.253986 -4.24997 0 0.253912 -3.49995
0 0.0593815 -3.49994 0 0.253441 -2.74993 0 0.0570188 -2.74991 0
0.251316 -1.99991 0 0.0492276 -1.99987 0 0.242776 -1.24992 -1.69407e-21 0.03
-1.24985 1.23328e-17 0.222327 -1.24989 3.38813e-21 0.125756 -0.874924 2.08116e-17 0.03 -0.874929
0 0.122356 -0.124951 -8.47033e-22 0.03 -0.499941 0 0.03 -0.124922 -8.47033e-22
0.0385291 1.00021 0 0.231242 0.625368 0 0.203537 0.25004 -2.11758e-22 0.03
1.75003 0 0.247334 1.92873 1.69407e-21 0.441438 2.50001 0 0.447397 3.25
-1.69407e-21 0.447898 4 0 0.447986 4.75 0 0.447997 5.5 -4.23516e-22
0.447999 6.25 4.23516e-22 0.447999 7 0 0.448 7.75 -1.05879e-22 0.448
8.5 0 0.448 9.25 0 0.448 10 -2.64698e-23 0.448 -5
-8.47033e-22 0.447985 -4.24997 0 0.447919 -3.49993 0 0.4475 -2.74988 0
0.445609 -1.9998 6.77626e-21 0.437758 -1.24969 1.61411e-17 0.417681 -1.24976 -6.77626e-21 0.31973
-0.875161 7.70461e-18 0.216228 -0.875403 0 0.312476 -0.499924 -8.74138e-19 0.250039 -0.312433
0 0.250037 -0.312436 0 0.200025 -0.499924 0 0.200026 0.250062 3.38813e-21
0.24921 0.250039 -1.69407e-21 0.250046 0.250032 0 0.300069 0.437526 3.05948e-18 0.300066
0.625026 0 0.30005 1.00072 -8.23994e-18 0.326497 1.00196 0 0.423 1.75013
0 0.439575 1.75013 1.77877e-20 0.448245 1.00135 0 0.537141 1.00002 0
0.61834 1.74999 2.71051e-20 0.633055 2.49999 -3.38813e-21 0.641448 3.25 0 0.641907
4 -1.69407e-21 0.641985 4.75 -8.47033e-22 0.641996 5.5 -4.23516e-22 0.641998 6.25
0 0.641999 7 0 0.641999 7.75 0 0.642 8.5 5.29396e-23
0.642 9.25 -5.29396e-23 0.642 10 0 0.642 -5 0 0.641985
-4.24997 -1.69407e-21 0.641926 -3.49993 0 0.641557 -2.74988 0 0.639897 -1.99989
6.77626e-21 0.63382 -1.25099 2.55465e-18 0.614606 -1.25 -2.71051e-20 0.515981 -0.878244 0
0.50789 -0.875961 2.71051e-20 0.459694 -0.875609 0 0.410432 -0.498432 0 0.400603
-0.498071 -1.70762e-18 0.413126 -0.450805 0 0.413349 -0.45095 0 0.400955 0.250009
1.89735e-19 0.412703 0.25 2.71051e-20 0.425212 0.296872 1.00289e-18 0.425187 0.343754 -2.71051e-20
0.425153 0.343763 0 0.400146 0.250006 0 0.400175 1.00162 1.41488e-17 0.520353
-2 4.23516e-22 0.820145 -2.09502 -2.11758e-22 0.830091 -2 0 0.829497 -1.25123
0 0.813251 -1.25126 0 0.713737 -1.25101 6.77626e-21 0.62198 1.00059 0
0.714169 1.00094 0 0.809205 1.75018 0 0.82775 2.5 0 0.835521
3.25 0 0.835917 4 -1.69407e-21 0.835986 4.75 -8.47033e-22 0.835996 5.5
0 0.835998 6.25 0 0.835999 7 0 0.835999 7.75 0
0.836 8.5 0 0.836 9.25 0 0.836 10 0 0.836
-5 -8.47033e-22 0.835986 -4.24997 0 0.835935 -3.49995 0 0.835616 -2.74991
0 0.83419 -0.970118 0 0.703382 -0.87455 0 0.699864 -0.874264 -2.71051e-20
0.649852 -0.874033 -2.71051e-20 0.599873 -0.49698 0 0.599585 -0.497345 -9.21572e-19 0.612046
-0.450014 0 0.611892 -0.44938 2.71051e-20 0.599454 -2.00002 0 0.84097 -1.84639
-3.38813e-21 1.02215 -1.25185 0 1.01276 -0.896512 -3.38813e-21 0.900668 -0.908183 6.77626e-21
0.801076 -0.904022 -1.86347e-20 1.00093 0.624925 0 0.799916 0.249931 0 0.799891
0.249978 0 0.899916 0.249997 0 0.999939 0.999987 0 0.999957 1.75061
-2.1684e-19 1.02409 2.50003 0 1.0296 3.25 -1.69407e-21 1.02993 4 0
1.02999 4.75 0 1.03 5.5 0 1.03 6.25 2.11758e-22 1.03
7 0 1.03 7.75 0 1.03 8.5 5.29396e-23 1.03 9.25
0 1.03 10 0 1.03 -5 0 1.02999 -4.24998 0
1.02994 -3.49996 -8.47033e-22 1.02968 -2.74996 0 1.02849 -2.00026 0 1.02458
-0.87482 0 0.799893 -0.87491 0 0.899919 -0.49993 0 0.799862 -0.499958
7.6233e-19 0.849889 -0.312476 0 0.849885 -0.312472 0 0.799853 -1.25001 8.04681e-21
1.19601 -0.499979 5.29396e-23 1.10737 -0.731886 2.11758e-22 1.19997 -0.499981 0 1.19997
-0.124987 0 0.999933 -0.477759 -5.29396e-23 0.999933 -0.487556 -1.45584e-22 1.09995 0.250008
0 1.19997 1 0 1.19997 1.7507 0 1.22203 2.50003 -1.35525e-20
1.22368 3.25 0 1.22394 4 0 1.22399 4.75 4.23516e-22 1.224
5.5 0 1.224 6.25 2.11758e-22 1.224 7 0 1.224 7.75
1.05879e-22 1.224 8.5 0 1.224 9.25 0 1.224 10 2.64698e-23
1.224 -5 4.23516e-22 1.22399 -4.24999 -4.23516e-22 1.22395 -3.49998 0 1.22374
-2.75001 0 1.22279 -2.00077 0 1.21965 -1.24997 4.23516e-22 1.19997 -0.499969
-5.29396e-23 0.999933 -0.874942 0 0.999936 -0.499979 -1.32349e-23 1.09995 -2.75001 0
1.36967 -3.18711 4.23516e-22 1.41751 -2.75001 4.23516e-22 1.4171 -2.00072 3.38813e-21 1.29692
-2.00065 0 1.41474 -1.25823 6.35275e-21 1.40014 -0.980416 0 1.39998 -0.499986
0 1.39998 0.250009 0 1.39998 1 0 1.39998 1.75054 0
1.41682 2.50002 -1.35525e-20 1.41776 3.25 0 1.41796 4 4.23516e-22 1.41799
4.75 0 1.418 5.5 0 1.418 6.25 0 1.418 7
0 1.418 7.75 0 1.418 8.5 0 1.418 9.25 0
1.418 10 0 1.418 -5 0 1.41799 -4.24999 0 1.41797
-3.49999 -4.23516e-22 1.41781 -1.24998 0 1.39998 -2.80392 1.32349e-23 1.61143 -2.75
-1.32349e-23 1.6114 -2.0003 0 1.60983 -1.25396 2.64698e-23 1.60004 -1.12789 2.64698e-23
1.59999 -0.49999 1.05879e-22 1.59999 0.250008 0 1.59999 1.00001 4.23516e-22 1.59999
1.75038 0 1.61122 2.50002 0 1.61184 3.25 -4.23516e-22 1.61197 4
-4.23516e-22 1.61199 4.75 0 1.612 5.5 0 1.612 6.25 0
1.612 7 0 1.612 7.75 5.29396e-23 1.612 8.5 2.64698e-23 1.612
9.25 -1.32349e-23 1.612 10 -1.32349e-23 1.612 -5 0 1.61199 -4.24999
0 1.61198 -3.49999 0 1.61187 -1.24999 0 1.59999 -2.75 -1.32349e-23
1.63714 -2.64195 -2.11758e-22 1.80559 -2.00012 -8.47033e-22 1.80492 -1.25741 0 1.80004
-1.19082 -7.94093e-23 1.8 -0.499992 1.05879e-22 1.79999 0.250006 2.11758e-22 1.79999 1
0 1.8 1.75023 0 1.80561 2.50001 3.38813e-21 1.80592 3.25 0
1.80599 4 0 1.806 4.75 2.11758e-22 1.806 5.5 0 1.806
6.25 0 1.806 7 0 1.806 7.75 0 1.806 8.5
2.64698e-23 1.806 9.25 0 1.806 10 0 1.806 -5 0
1.806 -4.25 -2.11758e-22 1.80599 -3.49999 0 1.80594 -2.75 -1.05879e-22 1.8057
-1.24999 0 1.8 -2 -4.76456e-22 1.98532 -1.20969 -1.65436e-23 2 -0.499993
0 2 0.250006 0 2 1 0 2 1.75 0
2 2.5 0 2 3.25 0 2 4 0 2
4.75 -1.05879e-22 2 5.5 0 2 6.25 0 2 7
5.29396e-23 2 7.75 0 2 8.5 0 2 9.25 0
2 10 -1.32349e-23 2 -5 2.21817e-18 2 -4.25 1.05879e-22 2
-3.49999 0 2 -2.74999 0 2 -1.99999 -5.29396e-23 2 -1.24999
3.30872e-24 2 0.0956945 -5.42101e-20 0.203879 0.0632748 0 0.203876 0.0625511 0
0.250042 -0.403589 6.77626e-21 0.40138 -0.405779 7.7927e-19 0.38799 -0.406379 -6.77626e-21 0.375196
-0.499567 -1.35525e-20 0.375265 0.250006 -6.50521e-19 0.375144 0.156247 0 0.375155 0.156237
9.41901e-19 0.400212 0.203129 0 0.400201 0.249796 0 0.59991 0.249852 -1.0842e-19
0.587433 0.202953 0 0.587417 0.202888 6.50521e-19 0.599901 0.625121 -6.77626e-21 0.499953
0.717439 6.77626e-21 0.504955 0.625095 6.77626e-21 0.475379 0.343596 1.0842e-19 0.599918 0.343639
0 0.574939 0.296781 0 0.574964 0.249926 0 0.574977 0.62499 -4.2826e-18
0.549927 0.624917 4.55365e-18 0.599925 0.203133 0 0.412725 -0.449046 0 0.587135
-0.496581 5.42101e-20 0.587161 0.625036 -9.32414e-18 0.40006 0.625067 1.13164e-18 0.450032 0.249704
0 0.624881 0.155871 0 0.599866 0.155839 1.95156e-18 0.624853 0.249886 1.35525e-20
0.749873 0.062411 0 0.749846 0.0624478 -4.26227e-18 0.799869 -0.312472 0 0.749804
-0.499901 -3.38813e-21 0.749824 -0.691227 0 0.30453 -0.499912 3.02221e-18 0.300065 -0.875784
-3.11708e-18 0.361353 -0.592465 -2.71051e-20 0.40036 -0.499854 0 0.350135 -0.687111 1.35525e-20
0.350117 -0.68656 -2.71051e-20 0.40021 0.437526 -1.35525e-20 0.400108 0.437522 6.77626e-21 0.350086
0.250015 -2.51399e-18 0.35011 0.625027 3.38813e-21 0.350064 -0.592287 0 0.425286 -0.498048
0 0.425444 -0.873902 5.42101e-18 0.54992 -0.496663 0 0.574746 -0.591532 0
0.574798 -0.591729 0 0.599734 -0.149108 0 0.406489 -0.149477 -5.29396e-23 0.403592
-0.149678 0 0.406489 -0.451876 -2.1684e-18 0.499977 -0.451579 0 0.487563 -0.498366
0 0.487552 -0.498515 -1.0842e-19 0.499993 0.437553 0 0.450075 0.437532 -6.07153e-18
0.425113 0.254621 -1.25361e-19 0.496697 0.26485 -5.42101e-20 0.498023 0.264831 0 0.496529
0.254636 -2.30393e-19 0.49668 0.570241 0 0.499932 0.437665 -2.71051e-20 0.474991 0.437859
-2.71051e-20 0.49988 0.437372 -1.0842e-19 0.599915 0.249722 3.25261e-19 0.649874 0.43732 -5.42101e-20
0.649899 0.624872 0 0.649914 0.624883 -3.95734e-18 0.699913 0.43734 6.83047e-18 0.699894
0.249817 0 0.699869 -0.592227 0 0.624743 -0.498071 -2.71051e-20 0.624658 -0.499769
6.77626e-21 0.69979 -0.687025 0 0.699824 -0.150854 -1.03677e-18 0.599678 -0.151059 -6.77626e-21
0.605522 -0.127339 6.77626e-21 0.605681 -0.127867 0 0.599582 -0.406139 -4.40457e-20 0.699754
-0.406113 0 0.674749 -0.499634 0 0.674774 -0.18433 -4.23516e-22 0.674527 -0.163626
-4.23516e-22 0.678958 -0.165125 0 0.674537 -0.171868 4.23516e-22 0.674524 -0.14924 3.34737e-19
0.400169 -0.125737 0 0.400165 -0.12551 0 0.393854 -0.149076 -2.11758e-22 0.393877
-0.499925 -2.61564e-18 0.325088 -0.406241 0 0.325087 -0.4062 0 0.300069 -0.124901
0 0.300062 -0.218633 -3.27294e-18 0.299673 -0.218596 1.35525e-20 0.324664 -0.124851 0
0.325085 -0.126061 7.86047e-19 0.406473 -0.0785222 1.30782e-18 0.400166 -0.126118 3.38813e-21 0.41275
-0.0785648 0 0.412729 0.240678 1.0842e-18 0.500153 0.252614 -2.1684e-19 0.498317 0.252386
1.0842e-19 0.496231 0.241035 0 0.496114 0.228892 -1.35525e-20 0.496204 0.228835 6.77626e-21
0.498715 0.229819 2.71051e-20 0.500074 0.25248 0 0.499935 0.240657 -1.6263e-19 0.500957
0.264863 0 0.500154 0.264689 0 0.500951 0.437443 0 0.549896 0.437406
[...]
POINT_DATA 2021
FIELD attributes 2
p 1 2021 float
2.01224 1.44036 2.37174 4.36607 0.0591833 0.0570676 -4.20515 -6.04395 -7.69302 -6.16764 -4.32238
0.496156 0.463995 0.111613 0.326481 0.174722 0.00344476 0.0271987 0.00565701 0.0145277 0.00976691
0.015712 0.00494244 0.0100402 0.000236241 0.00456766 -0.00137911 0.00231765 -0.00105558 0.00212792 -0.000448066
0.00214489 0.000576665 0.00334853 0 0 0.615021 0.610566 0.610414 0.614736 0.63591
0.635015 0.70589 0.702758 0.928009 0.924716 1.64249 1.76405 1.7794 2.23778 2.4784
-4.056 1.37028 -4.1088 0.651688 -0.109921 -6.03373 0.572011 0.442404 0.189592 0.029189
0.00734829 0.00952349 0.00567441 0.00106851 -0.000631677 -0.000292278 -0.000412967 0.00265782 0 0.609982
0.613967 0.632602 0.693724 0.903597 1.95791 2.03075 3.13019 3.87484 7.32851 -3.29355
-1.04803 4.58616 -5.73432 -5.72649 -2.26728 0.340422 0.828514 1.03217 0.927481 0.521432
0.51724 0.847888 0.880916 0.427742 0.167193 0.0229621 0.0023125 0.00654376 0.00440358 0.000442192
-0.000986995 -0.000450389 -0.00028989 0.0028403 0 0.609292 0.612778 0.628966 0.681034 0.86314
1.85168 2.13762 5.13659 5.59083 4.82817 32.5812 36.4663 52.0372 45.9932 4.76885
4.92254 3.40921 3.43833 2.69528 4.09307 0.841057 0.809075 0.788596 0.806361 1.39791
1.78703 1.8469 0.993344 0.48304 0.349849 0.127606 0.0135416 0.000512696 0.0070238 0.00623351
0.00263228 0.00117527 0.00148622 0.00207023 0.00350288 0 0.608417 0.611297 0.624533 0.666154
3.25373 3.75232 4.68458 4.76256 34.3643 32.7028 44.6286 50.7696 0.802528 0.782245
0.940844 1.70368 2.6286 1.14312 0.0811633 -4.88202 -5.30227 -2.74884 -0.228311 0.191081
0.0732412 -0.00549942 -0.0108145 -0.000822541 0.00100613 -0.00110157 -0.00167722 -0.000794412 0.000325005 0.00129893
0 0.607448 0.609675 0.619705 0.650171 0.741176 2.74819 1.73344 5.19082 3.29434
0.559224 -0.673119 0.698761 0.311882 0.313656 0.143618 -1.70941 0.67438 0.282359 -0.97414
-0.393811 0.0979565 0.0647712 -0.0028929 -0.0108047 -0.000925595 0.00157461 -0.000278791 -0.000839833 1.12332e-05
0.00107365 0.00157946 0 0.606483 0.608065 0.614857 0.634041 0.677675 0.693523 0.824466
1.16003 0.325369 0.622811 0.614086 0.619185 0.657413 0.62651 0.567492 0.384738 0.0601946
-0.564257 -0.37766 0.0462128 0.0592911 -0.00431829 -0.015054 -0.00428302 -0.000663944 -0.00201861 -0.0023265
-0.0013051 -0.000123426 0.000454301 0 0.60562 0.60661 0.610435 0.566836 0.607409 0.607449
0.591423 0.49633 0.427775 0.0778356 -0.435216 -0.348797 -0.000975925 0.0480559 -0.0078775 -0.0187109
-0.00637291 -0.00165988 -0.00261247 -0.00273572 -0.00161529 -0.000369226 0.000275767 0 0.604942 0.605438
0.606892 0.495824 0.60647 0.595887 0.5711 0.45867 0.428325 0.0871585 -0.364948 -0.332867
-0.0274935 0.0429688 -0.00827955 -0.0197955 -0.00712543 -0.0020746 -0.00293051 -0.00298973 -0.00182238 -0.000550488
0.000138945 0 0.604504 0.604657 0.60455 0.60006 0.457547 0.564828 0.426172 0.0902482
-0.342576 -0.327716 -0.0357858 0.0414387 -0.00837536 -0.0202131 -0.00748406 -0.00230364 -0.00309026 -0.00308746
-0.00187719 -0.000585749 0.000124451 8.03804e-05 0.604351 0.604375 0.603707 0.59754 0.564318 0.445248
-10.2877 -11.1455 -11.7967 70.4967 60.0838 43.8963 29.6803 2.92655 1.68815 4.39992
5.06565 4.16779 4.5846 6.22122 5.43526 2.02306 1.7331 2.13881 2.97966 3.68847
3.38716 3.99768 2.24485 1.91338 6.0548 56.2581 39.4518 1.93414 2.25786 3.66469
4.77531 2.18634 -4.53076 -11.2101 -9.84754 -3.18691 8.46743 7.00699 11.9091 4.75171
17.468 20.8263 9.13997 10.5203 2.58218 1.50052 0.993221 1.6562 19.7349 36.9228
5.61477 39.6516 20.334 18.8242 -58.7483 -58.5282 -58.7456 68.472 68.3849 47.5704
44.8044 3.40654 3.11124 -4.98303 0.367352 0.217402 -5.0325 2.58476 3.97368 3.93599
2.86787 1.84576 1.76458 1.6276 0.950346 0.763151 -1.35867 17.0099 28.1114 13.2997
7.27955 -56.5646 -56.3512 -58.7955 -58.7165 13.8821 19.1198 18.4892 -46.3006 -42.7439
-44.4234 -45.1594 -58.2714 -57.5238 -57.5261 -57.6874 16.6184 15.8967 12.0133 -29.3672
-27.9646 -45.3612 -37.0685 -58.8577 -46.001 -58.6908 -48.1466 10.9861 4.30012 10.5019
11.8393 9.08761 9.36222 9.64977 4.52352 11.1091 0.922701 0.753343 3.72459 3.48323
4.06104 4.32001 47.7632 68.3543 -58.8505 -56.4964 6.50697 11.1172 -51.4095 -52.6949
-58.4419 4.48368 6.29835 6.46342 6.49741 -31.4368 -40.0467 -49.4543 -29.7973 64.4187
60.8035 41.6654 41.4142 -44.0582 -56.0465 -11.5341 -8.60927 -0.45564 -24.5532 -42.4477
42.9912 44.3179 64.3164 66.4878 -51.772 -49.9291 -50.6999 0.333098 -9.67311 -12.7219
-11.6984 -21.6841 -24.8792 -57.8518 44.0488 21.8576 22.1515 11.7059 12.0227 12.1961
13.1473 22.0284 44.513 10.8008 12.4641 11.9044 13.2446 -58.6628 -58.6535 -58.1408
-58.1282 -57.4803 -56.8613 -56.5 45.8285 66.841 -58.3241 -58.5836 -58.9792 -58.2329
-29.8654 -35.1002 -32.8339 -13.8018 -1.6331 -4.94869 -50.6394 -50.3022 -58.0228 -13.2051
0.0950381 0.0145281 -13.4361 -58.2904 -56.8174 -51.3219 -12.5494 -10.2765 -3.76138 1.51863
-7.3412 -5.55592 -18.5841 -38.306 -41.414 -36.326 -52.1756 -53.1969 -52.9264 -4.07232
-17.4791 -18.2242 -4.68862 -56.0429 -51.9372 -56.0645 -3.51804 -9.23421 -16.5372 -11.7052
67.5404 46.8772 -54.2385 -54.407 -56.7963 -56.6732 -56.1936 -53.7167 -57.0855 -53.1152
-55.9516 -58.9452 -59.0731 -59.1149 -32.1201 -77.07 -96.1087 -101.061 -103.295 -102.855
-48.595 -50.1847 -54.2103 -48.2364 -49.8546 -98.0516 -99.3903 -71.261 -34.2783 -58.4577
-59.2644 -58.9486 -56.2702 -57.1607 -57.2509 -57.1761 -57.5731 7.11237 6.02157 8.92205
-56.0341 -55.7223 -55.9442 -55.4322 -55.5533 -55.8388 -56.249 -55.1265 -55.1109 2.05647
1.84822 0.728408 1.23129 4.24516 4.60961 1.37171 -55.8447 -56.2981 -56.9473 5.81237
6.64301 2.79568 0.901158 3.15935 -32.1464 -38.1579 -37.4079 -31.7515 -54.5865 -55.0762
-57.9673 -57.6442 -54.9637 -55.7891 -38.9418 -43.296 -43.0933 -36.9499 -46.1135 -50.1563
-53.279 -53.4284 -52.2668 123.591 131.45 146.793 146.881 -58.1348 -56.2003 -56.4731
-57.8283 -57.6762 4.40267 2.11604 3.01629 4.61628 -9.73521 -3.91542 -5.87056 -8.90658
-11.7934 -39.0826 -36.8811 -25.5934 -27.3279 -32.141 -39.1023 -24.9325 -24.9619 31.1064
41.2853 52.1277 37.9343 23.0777 19.2711 34.2531 26.1491 0.671333 0.829606 1.98873
34.0893 24.9156 17.1119 22.1954 2.90549 3.84588 4.49048 4.60027 3.73736 6.69716
6.80864 4.63729 -9.35252 -8.23619 -1.37605 -10.2342 14.6907 9.15003 10.8255 -54.6653
-56.8983 -57.0288 -54.8593 -82.6932 -81.413 -84.6512 -47.939 -12.6787 -18.3312 -27.5829
-56.0099 -52.8218 -55.364 -56.4607 -74.0516 -73.8013 -58.4276 -59.6703 -49.5925 -47.9325
-50.204 -50.3531 3.76746 3.8268 -0.592456 5.99861 5.65589 4.67396 5.3438 5.73211
6.14101 -54.129 -53.6815 -68.8119 -68.0236 79.0214 94.1199 85.7189 112.122 106.434
88.8538 90.1676 161.859 164.192 153.373 121.642 98.4207 104.359 97.3169 117.655
-12.9269 -26.986 -31.3117 -5.89235 -26.1628 -52.0668 -41.7288 -6.36412 93.7282 101.227
86.8101 78.2782 96.7058 88.4018 107.612 148.467 158.219 167.409 165.146 106.632
102.908 159.636 -32.6291 -7.97564 -38.3048 -28.5294 -47.7092 140.215 140.084 115.609
110.589 110.251 115.515 139.609 138.993 108.141 167.239 170.844 172.014 172.305
173.715 186.652 186.84 174.821 173.273 -33.0798 -40.1763 -33.0317 -56.4374 -50.8544
-42.7269 -41.9699 -40.7107 -25.6557 2.73105 -2.65365 -0.709952 173.393 175.337 187.192
172.365 186.508 187.152 175.224 172.171 179.599 181.762 170.113 168.881 179.896
167.881 171.098 182.421 -52.5742 -37.7858 -36.5402 -55.7094 -55.7402 -55.8557 -36.3491
-46.1985 -36.4594 -36.9383 -45.8193 -45.7856 -3.35935 -9.2219 -25.0883 -25.1415 -33.0081
-43.6235 -33.0277 -32.7154 -43.0343 -21.2879 -18.9875 -20.7234 115.426 140.144 138.129
139.039 114.683 109.311 170.038 169.912 170.48 167.743 136.402 108.401 113.578
137.153 -57.1625 -54.2542 -52.8573 -52.6839 -55.6891 -46.1347 90.1672 93.438 78.6868
-14.912 -6.19459 -6.7331 -20.8394 54.532 56.3935 69.9981 73.6519 -55.8966 -55.1428
-55.4383 -55.8898 -57.0572 -57.3024 -57.4375 -57.5428 -56.1774 -56.2796 -55.88 -55.9728
-134.857 -109.293 -77.7564 -95.6602 -98.0186 -99.1629 -99.1548 -83.2811 -78.9659 -92.5574
-70.3735 -85.2994 -132.827 -136.439 -128.383 -96.1892 -97.0115 -54.8342 -54.2996 -54.9963
-56.0801 -56.3671 -53.9286 -53.857 6.75628 7.28857 13.7256 16.3418 13.8176 -50.9518
-50.2272 -45.7869 -46.0153 -46.1367 -45.9339 -45.9068 -45.6886 12.9468 12.6783 16.872
8.29692 8.10301 9.66112 10.1402 10.1655 8.52609 7.34519 8.10642 12.4102 15.7105
13.7295 0.802473 -0.833419 -3.02242 7.05763 6.22743 5.10626 6.44657 7.16568 -52.467
-53.3568 -56.3228 -55.6333 -48.6297 -49.6121 13.6155 15.5775 16.9697 -46.8017 -49.7163
-49.8489 -46.5168 -45.6704 11.3628 11.1055 11.1482 9.57264 6.87468 -6.94834 -5.71206
5.50406 6.31879 6.27753 -48.5061 -48.8503 146.508 148.532 140.951 136.989 113.385
118.338 125.745 121.223 184.613 185.889 182.19 178.432 -55.7284 -55.6597 -53.0674
-52.9785 169.641 183.361 185.06 172.998 174.455 186.574 171.033 182.146 169.629
179.281 -16.89 -19.1852 -23.9354 -28.2102 -26.8052 -22.9339 -8.81693 -3.48175 -3.91564
-9.1122 -14.1438 -13.7869 -1.03236 -9.06653 -9.93613 -15.0167 -18.1516 -8.20796 -8.96628
-24.9578 -20.2248 -9.66075 -0.781124 -3.05341 6.04343 -3.51853 6.02591 6.79414 3.39098
3.91853 4.63823 4.19939 7.71378 6.08488 3.96202 5.81879 -18.9178 -15.9966 -26.3383
-21.4662 -56.4459 -58.1585 -58.7558 -58.6246 3.05105 3.11796 5.03994 5.51796 4.29074
4.88686 -14.54 -40.2797 -57.2304 -65.4455 -53.2274 -31.8686 -58.9348 10.7245 10.1842
10.2074 -2.34558 0.275533 11.9973 17.2488 9.51946 23.6189 20.5144 10.4226 1.73141
6.84103 8.33195 13.1254 11.5595 6.80357 -53.4182 -44.0621 -49.9351 -13.0747 -43.9197
-24.9683 -60.6427 -83.7543 108.736 92.7842 106.241 108.415 112.785 111.924 172.888
172.012 173.263 172.579 171.281 185.968 185.969 185.204 -57.9865 -58.2011 174.488
-56.2003 -56.1987 -57.1368 -57.302 -57.0097 -55.9019 -149.875 -136.737 -136.624 -133.42
-157.545 -136.531 -132.547 -132.858 -119.654 -114.987 -80.2959 -73.1502 -73.4877 -70.8688
-119.385 -121.129 -56.7803 -55.7758 -54.6734 -57.1538 9.46098 7.11421 10.6857 8.23145
10.9986 12.0248 12.3948 13.374 14.1588 -55.263 -54.3305 -56.316 -55.1343 -53.1803
-52.9151 -53.0302 -54.9602 -5.92581 -0.439146 -1.38576 -4.55898 9.2086 9.57552 6.82835
5.87697 7.58459 9.56573 8.81324 6.73693 1.33689 8.19219 7.09095 6.9218 8.6838
10.4122 9.23327 12.0442 11.3355 -54.7073 -55.1323 -55.2477 -55.3748 -55.526 -55.3751
-54.8704 -52.8775 -54.1967 -54.2053 -54.2184 -51.1508 -52.5418 -73.8515 -73.0684 -57.691
-59.9903 -77.6626 -68.5087 -77.5211 -123.973 -128.565 -136.189 -79.599 -97.6375 -107.448
-80.4632 -98.9802 128.78 113.618 148.545 151.768 -54.6504 -53.8831 -54.9862 -54.9679
-53.1848 143.895 167.88 146.154 -49.0491 -48.2088 -48.6561 -49.4337 -49.2516 -49.2689
-49.1957 -47.6798 -8.06648 -9.35455 -11.8984 -11.0101 -14.8613 -17.0496 -19.1962 -16.9769
-17.9084 74.8194 85.5174 -58.4986 51.2378 76.5394 65.0086 75.6091 61.0711 13.8964
10.9566 45.6063 36.5976 8.37061 9.20629 3.65686 5.32101 5.1317 7.82227 6.73986
7.10459 7.48973 8.30123 -52.8435 -52.4009 -52.1135 -52.6995 -0.986851 -0.485391 -1.05976
2.29616 5.71457 5.1577 7.10401 6.5393 -51.0286 -51.448 -51.1722 138.218 136.3
171.194 184.785 189.09 189.377 186.868 185.344 -55.7747 -55.4824 -55.8033 -55.6334
-53.2025 -45.6161 -46.4434 -47.0721 -46.278 -46.6121 -47.9073 -56.1062 -56.1318 -56.722
-57.3178 -57.025 -57.0087 -57.1711 -56.7868 -55.1539 -115.801 -111.449 -134.914 -111.541
-134.119 -122.331 -123.794 -133.536 -56.2112 -57.4727 -55.9032 -54.6418 13.6752 12.3066
11.2738 12.447 12.7096 13.3615 -36.8551 -36.3449 -31.5576 -31.0109 -41.829 -42.3665
-46.5198 -46.1262 -51.1371 -51.1858 -45.6143 -52.19 -51.8291 -6.11649 -0.896451 -11.3693
0.70978 2.14179 8.0306 7.56639 7.89081 4.32198 10.6996 7.37433 8.78173 10.263
10.9044 10.7956 10.937 12.6961 12.3702 2.41224 12.4305 14.8127 15.9794 3.9029
3.41256 3.15023 3.82951 -58.9506 -58.0982 -52.9296 -56.5247 -44.6992 -44.1664 -40.13
-44.4934 -45.9058 -49.9554 -51.1592 -49.5999 -49.8227 -49.5814 -47.1581 -52.2316 -47.2361
4.22111 -48.2959 -49.5845 141.028 131.84 129.433 129.487 129.867 114.388 106.971
188.666 188.139 187.145 -50.7578 -51.0867 -1.40726 -0.837275 0.202735 -29.7105 -30.6228
186.06 186.895 180.373 183.332 181.878 181.508 -33.2358 -29.0701 -3.1778 -7.83576
-5.95396 -3.22345 -24.8324 -13.7078 -10.2815 -13.4862 -19.908 -4.58194 80.8815 56.5243
60.8549 21.0721 21.4387 68.0211 110.712 10.1394 7.1935 -2.17691 -2.43682 6.8317
7.6242 7.91443 6.11697 6.56527 24.5426 16.3071 -0.404851 19.7693 -1.73332 3.50995
8.16973 8.09533 68.0257 110.214 -54.7887 -55.8699 18.1273 91.594 109.054 100.397
92.446 108.063 109.175 126.588 134.326 143.201 -55.8406 81.6319 73.6168 50.4433
12.5791 18.6324 16.8041 -75.4407 -56.863 -56.8565 -56.8598 -55.2832 -55.2121 -59.9394
-55.454 -59.9043 -60.4889 23.3053 -6.44292 5.95699 10.5476 10.7803 -1.35054 -1.45468
-2.55689 -55.6574 -54.2051 -0.984776 2.56869 2.87488 -57.5256 -56.9663 -56.108 7.98266
7.67291 4.16439 -56.6213 41.6664 49.7078 -66.578 -58.8476 17.5358 15.0641 9.00395
6.92348 5.09218 8.53096 6.97613 -54.202 -54.1605 -52.9878 -52.9178 -55.8307 -52.2564
-51.7838 -54.5011 -54.801 -54.794 -54.2924 -55.3528 -54.9292 -54.802 -54.5482 4.50638
-51.7743 -57.8589 -56.8294 100.541 129.177 144.736 155.201 168.11 162.946 160.757
148.758 188.25 -52.8661 -53.7952 -51.8927 -7.46333 -10.5041 -3.31793 -49.7496 -49.7704
-49.7529 -50.0322 -53.1711 -47.2638 -48.8112 -47.5793 -47.0849 -47.7883 28.8746 20.3076
-112.233 -119.839 -119.696 -120.33 -120.672 -74.0062 -96.6033 -74.01 13.3974 16.9976
-10.8512 12.077 11.5193 -5.48365 -7.05788 4.11474 2.49922 0.987367 0.64658 -0.626624
-2.24896 -0.9926 4.15287 4.53521 0.615233 2.85492 4.50935 2.41644 1.32884 13.3364
17.5983 -50.0896 5.531 12.7715 8.53201 16.4768 8.48978 11.1839 14.1931 15.9638
4.81014 5.0215 6.48355 5.9123 -2.00883 -3.91298 -6.14348 -6.04463 4.906 1.72509
4.42174 9.44988 15.3324 16.5386 8.24881 5.69203 3.08815 2.78116 7.20694 10.6656
11.3197 11.9581 11.0889 5.73095 -3.46601 5.60645 -2.71468 3.25679 -3.47481 2.49983
10.9864 8.33125 12.3519 6.98336 9.46035 11.3687 10.7699 10.4714 7.92883 8.6227
9.1407 9.38695 7.89752 7.36893 7.37685 6.02684 -5.39439 -8.88757 -7.11319 6.49612
5.90165 7.96048 6.26976 -9.09306 -10.8388 1.13853 7.07319 5.9103 -1.60241 5.70251
-136.926 -137.574 -137.809 10.2514 -55.5753 -54.5373 -54.5893 5.26182 9.92769 5.3542
8.4211 11.0076 -55.7343 -55.7001 -55.0713 -54.764 -61.0377 -60.5349 -61.0175 -69.0689
-116.019 -119.828 -113.703 -120.537 -49.0099 -49.5378 -47.4787 -47.179 -47.446 -47.1539
-14.6627 -14.6622 -17.0874 -52.6542 -52.4692 -52.2272 5.15602 1.54002 5.00183 4.9736
-52.0269 -52.4625 -52.5855 141.787 151.135 -55.2841 -50.7468 13.3738 13.9115 11.601
7.22769 11.4878 18.7208 4.24445 3.36371 4.70309 3.69698 -53.3183 -57.2518 -57.0699
-55.3253 7.77427 15.0769 11.1171 4.11566 4.26749 10.0775 8.83042 9.5144 8.62824
10.4 12.4211 10.2633 5.8575 8.57775 8.23279 -54.1712 -50.2001 -48.5523 91.2389
80.2742 84.2353 66.7689 72.7508 -4.73315 -2.87193 0.352699 -1.42643 7.65953 8.17137
7.712 8.29418 8.05772 7.5543 7.09891 116.842 106.805 94.764 -73.9346 -57.3593
-56.0552 -54.8925 -54.7229 -54.3713 -54.3454 163.488 139.771 161.897 162.006 7.64638
4.51391 10.6179 11.321 7.23253 8.55667 7.46483 6.92709 6.18672 2.81448 -2.29359
4.78985 5.4245 6.00369 4.39146 6.68636 14.4118 9.04496 -12.6267 15.6276 14.2884
7.66373 10.769 15.9242 9.13801 -12.5602 -13.475 -11.5534 -2.7583 -4.75851 -12.9676
7.26289 5.32859 -14.5678 -16.1631 7.21784 4.90238 -0.942723 -3.80532 -55.0803 -45.9418
13.077 1.98686 0.328718 -0.0562874 6.01835 5.58278 6.51157 6.09892 6.05518 5.6371
0.353364 6.30322 6.94548 -0.382802 5.75473 4.78001 7.21933 6.71215 6.13896 106.215
86.6852 122.028 123.814 5.2198 4.95001 3.51244 -55.2974 5.14951 6.12933 5.90811
-9.46649 -12.4081 -0.175586 6.30166 6.79339 5.45053 8.12531 5.25481 6.94824 3.94533
37.1814 -53.2499 -55.2227 -54.7169 -54.6834 -54.7414 -2.88362 -4.25586 -12.4269 -12.2967
-12.3187 -3.3489 9.42369 3.1846 6.03035 7.11148 2.66517 2.45362 0.191083 -0.770454
-10.7559 -5.11421 -4.00752 -11.1142 -4.05351 -11.9578 5.63681 -11.2316 -12.2547 -2.35052
1.27322 6.40041 6.41444 5.84673 8.88377 0.299296 6.70509 -2.99506 -0.996815 4.41026
-0.709197 7.26145 4.87748 -9.76286 9.02549 -0.544668 6.20395 1.14206 1.51827 4.88448
5.23982 4.32507 5.04987 3.19123 7.68802 8.92005 5.50411 6.11546 1.0263 3.49582
11.1031 5.59825 0.906657 -0.44086 3.68632 173.165 176.987 176.119 181.031 169.132
168.102 172.682 179.957 180.948 69.5906 73.7926 54.9556 -56.1651 -41.5553 -38.6764
-36.945 -31.0469 -43.8102 -51.9993 -51.6499 -55.3132 -46.787 100.789 154.478 162.117
155.258 146.995 -56.6269 -56.2243 -56.5623 -56.332 -55.8415 -56.292 -54.9238 -55.2268
-55.0686 3.96586 -0.341291 171.247 -18.4613 186.024 190.27 189.418 -51.3399 -47.334
182.756 185.887 186.062 -16.3468 -51.1857 85.2743 -55.0498 -55.1795 -55.4345 -55.4013
-49.4801 189.393 -2.43745 189.508 185.529 189.102 7.37446 -64.3032 110.659 109.969
-55.9116 4.6626 -51.7943 -53.097 -51.908 -138.055 138.74 -54.9 159.227 -52.0303
-120.752 -120.67 72.285 6.99352 2.67219 168.088 164.702 -15.4126 139.857 191.114
190.009 185.41 189.463 190.797 189.792 172.804 191.169 186.789 189.963 191.203
0.615037 0.610572 0.6359 0.705021 0.918971 1.62306 2.20888 -3.98444 1.35733 0.0243637
-4.10022 -5.86974 0.408888 0.0901936 -0.00156858 0.00544597 0.0104814 0.00578435 0.00106378 -0.000602004
-0.000336513 0.000213964 0.0011347 0.000612132 -54.1958 -52.4787 -134.005 -134.561 -48.0236 -48.4902
-49.1687 -47.8633 -48.3729 -49.0951 -49.7615 -47.3619 -95.1702 -74.8009 -48.8796 -47.2085
-74.2391 -48.803 -51.3066 -51.6623 -50.7746 -99.6355 -111.261 -129.511 -119.826 -119.646

U 3 2021 float
20.0062 -0.0459931 -0.21586 20.0438 -0.0309121 -0.0740388 19.929 -0.0065186 -0.0965281 19.9355 -0.0560726
-0.606873 20.0176 -0.0593744 0.0399774 20.0179 -0.0592695 0.04001 20.1682 -0.0783223 0.0575336
20.2329 -0.0865281 0.06557 20.2785 -0.091503 0.149289 20.2912 -0.116113 0.264043 20.2101
-0.117397 0.208822 19.9544 -0.0472823 0.0198577 19.9967 -0.0546893 0.018353 20.0037 -0.0529655
0.00698116 19.8528 -0.0246034 0.0176681 19.8516 -0.0213881 0.0141212 20.0059 -0.0526699 0.00189991
19.8539 -0.0199746 0.00964118 20.0044 -0.0518464 0.000520889 19.853 -0.0183235 0.00874566 20.0026
-0.0510191 -1.21738e-05 19.8517 -0.0167719 0.00844485 20.0011 -0.0502539 -0.000294796 19.8506 -0.0154387
0.00820947 19.9996 -0.0495661 -0.000477456 19.8495 -0.0142791 0.00799287 19.9979 -0.0489063 -0.000604498
19.8484 -0.0132209 0.00780451 19.9962 -0.0482588 -0.000703971 19.8473 -0.0122593 0.00760574 19.9946
-0.0476257 -0.000740718 19.8463 -0.0113778 0.00751668 19.9926 -0.0469708 -0.000831845 19.8452 -0.0104514
0.00724036 19.8448 -0.00997043 0.00694091 19.9923 -0.0467596 -0.000872901 19.9996 -0.000342776 3.12836e-05
20 0 0 20 0 0 19.9996 -0.000342782 7.86528e-05 19.9983
-0.00079195 9.3859e-05 19.9984 -0.00080141 0.000278669 19.9942 -0.00155786 0.000368196 19.9941 -0.00152238
0.00100011 19.9788 -0.00281535 0.000335489 19.9795 -0.00313742 0.00357779 19.9464 -0.00550253 -0.00906619
19.9362 -0.00626593 -0.00797417 19.9389 0.00223885 -0.0143359 19.9277 -0.00548597 -0.0295277 19.9061
0.00520499 -0.061047 20.2333 -0.0728904 0.00182502 20.0485 -0.0290662 -0.0566689 20.2354 -0.0719719
0.00509753 19.9272 -0.0891971 0.030627 20.0249 -0.118565 0.0820927 20.2326 -0.0864965 0.0650513
19.8547 -0.0298045 0.023406 19.3069 0.119998 0.0100738 19.339 0.117416 0.0111703 19.3671
0.111695 0.0112254 19.3882 0.107395 0.0119127 19.4065 0.103601 0.0124199 19.4234 0.100007
0.0125982 19.4394 0.0966108 0.0126063 19.4543 0.0934156 0.0125371 19.4686 0.0903697 0.0123999
19.4817 0.0874832 0.012289 19.4964 0.084665 0.0120112 19.5051 0.083219 0.0117542 20
0 0 19.9996 -0.000343288 0.000137298 19.9985 -0.000799623 0.000490337 19.9945 -0.00152814
0.0017196 19.98 -0.00325799 0.0060343 19.9197 -0.00880283 0.0107407 19.9194 -0.00798639 0.00100152
19.8499 -0.0166343 -0.0958163 19.7932 -0.0205649 -0.0681669 19.9555 -0.051471 -1.02529 20.4348
-0.0685227 -0.93505 20.216 -0.0538636 -0.50923 19.9304 -0.0560989 -0.636381 20.31 -0.1636
0.453527 20.3104 -0.16448 0.456988 20.1015 -0.249786 0.58329 19.9912 -0.23894 0.301983