# vtk DataFile Version 2.0
tracks
ASCII
DATASET POLYDATA
POINTS 2595 float
-1.001 -0.05 0.0011 -0.900789 -0.0500221 0.00109717 -0.800577 -0.0500441 0.00109434 -0.700366 -0.0500661
0.00109152 -0.600155 -0.050088 0.00108871 -0.499943 -0.0501098 0.00108591 -0.424945 -0.0501132 0.00107768
-0.349947 -0.0501549 0.0010668 -0.274949 -0.0501962 0.00105602 -0.19995 -0.050237 0.00104535 -0.124952
-0.0502775 0.00103479 -0.0499538 -0.0502844 0.00103491 0.0250446 -0.0502841 0.00104381 0.100043 -0.0502837
0.00105279 0.175041 -0.0502834 0.00106185 0.25004 -0.050283 0.00107098 0.400037 -0.0502712 0.00108703
0.550035 -0.0502608 0.00110232 0.700032 -0.0502504 0.00111783 0.85003 -0.0502398 0.00113356 1.00003
-0.050229 0.00114951 1.15003 -0.0502362 0.0011571 1.30002 -0.0502373 0.00116301 1.45002 -0.0502385
0.00116896 1.60002 -0.0502397 0.00117494 1.75002 -0.0502408 0.00118094 1.90002 -0.0502464 0.00118366
2.05002 -0.0502496 0.00118686 2.20001 -0.0502529 0.00119007 2.35001 -0.0502562 0.00119329 2.50001
-0.0502595 0.00119652 2.65001 -0.0502646 0.00119752 2.80001 -0.0502702 0.00119878 2.95001 -0.0502757
0.00120004 3.10001 -0.0502812 0.00120131 3.25001 -0.0502867 0.00120258 3.40001 -0.0502917 0.0012027
3.55001 -0.0502983 0.00120312 3.70001 -0.0503048 0.00120355 3.85001 -0.0503113 0.00120397 4.00001
-0.0503178 0.00120439 4.15 -0.0503227 0.00120419 4.3 -0.0503296 0.00120424 4.45 -0.0503365
0.00120429 4.6 -0.0503434 0.00120434 4.75 -0.0503503 0.00120439 4.9 -0.0503549 0.00120401
5.05 -0.050362 0.00120383 5.2 -0.0503691 0.00120365 5.35 -0.0503761 0.00120347 5.5
-0.0503832 0.00120329 5.65 -0.0503877 0.0012028 5.8 -0.0503948 0.00120253 5.95 -0.050402
0.00120226 6.1 -0.0504091 0.00120199 6.25 -0.0504162 0.00120171 6.4 -0.0504205 0.00120118
6.55 -0.0504276 0.00120094 6.7 -0.0504348 0.0012007 6.85 -0.0504419 0.00120046 7
-0.050449 0.00120023 7.15 -0.0504531 0.00119969 7.3 -0.0504602 0.00119958 7.45 -0.0504673
0.00119947 7.6 -0.0504744 0.00119936 7.75 -0.0504815 0.00119925 7.9 -0.0504854 0.00119876
8.05 -0.0504925 0.00119883 8.2 -0.0504996 0.0011989 8.35 -0.0505066 0.00119897 8.5
-0.0505137 0.00119903 8.65 -0.0505174 0.00119863 8.8 -0.0505245 0.00119892 8.95 -0.0505315
0.00119921 9.1 -0.0505386 0.0011995 9.25 -0.0505456 0.00119979 9.4 -0.0505492 0.00119948
9.55 -0.0505793 0.00120056 9.7 -0.0506353 0.00120223 9.85 -0.0507172 0.00120448 10
-0.0508249 0.00120733 -1.001 -0.05 0.0537316 -0.900807 -0.0500997 0.0535711 -0.800614 -0.050197
0.0533826 -0.700421 -0.0503161 0.0531572 -0.600229 -0.050465 0.0528922 -0.500035 -0.0506434 0.0525878
-0.425004 -0.0508839 0.0523496 -0.349974 -0.0512176 0.0520353 -0.274943 -0.0515913 0.0517409 -0.199913
-0.0519878 0.0514912 -0.12488 -0.0523524 0.0513279 -0.0498869 -0.0525504 0.0513546 0.025106 -0.0526819
0.0515138 0.100099 -0.0527983 0.0517447 0.175091 -0.0529159 0.0520277 0.250087 -0.0530252 0.0523509
0.400076 -0.0532061 0.0530102 0.550066 -0.0533931 0.0535627 0.700057 -0.0535559 0.0540604 0.850047
-0.0536946 0.0545028 1.00003 -0.0538133 0.0548896 1.14729 -0.0540441 0.05518 1.29454 -0.0542488
0.0554491 1.44179 -0.0544515 0.0556802 1.58904 -0.0546524 0.0558733 1.70305 -0.0548065 0.0559933
1.71244 -0.0548201 0.0560017 1.72184 -0.0548339 0.0560099 1.73123 -0.0548478 0.0560181 1.74062
-0.0548619 0.0560263 1.75002 -0.054876 0.0560343 1.90002 -0.0551051 0.0561606 2.05002 -0.0553304
0.0562717 2.20001 -0.0555527 0.0563666 2.35001 -0.0557719 0.0564454 2.50001 -0.0559881 0.0565081
2.65001 -0.0562122 0.0565571 2.80001 -0.0564363 0.0566 2.95001 -0.0566591 0.0566343 3.10001
-0.0568808 0.0566599 3.25001 -0.0571012 0.0566769 3.40001 -0.0573216 0.056686 3.55001 -0.0575448
0.0566935 3.70001 -0.0577664 0.0566978 3.85001 -0.0579864 0.0566988 4.00001 -0.0582048 0.0566966
4.15 -0.0584185 0.0566907 4.3 -0.0586363 0.0566843 4.45 -0.0588521 0.0566761 4.6
-0.0590661 0.0566662 4.75 -0.059278 0.0566546 4.9 -0.0594834 0.0566406 5.05 -0.0596939
0.0566265 5.2 -0.0599024 0.0566112 5.35 -0.0601089 0.0565949 5.5 -0.0603134 0.0565775
5.65 -0.0605101 0.0565585 5.8 -0.0607129 0.0565398 5.95 -0.0609137 0.0565207 6.1
-0.0611127 0.056501 6.25 -0.0613097 0.0564808 6.4 -0.0614979 0.0564596 6.55 -0.0616931
0.0564393 6.7 -0.0618864 0.056419 6.85 -0.0620779 0.0563988 7 -0.0622676 0.0563786
7.15 -0.0624478 0.0563575 7.3 -0.0626357 0.056338 7.45 -0.0628219 0.056319 7.6
-0.0630063 0.0563005 7.75 -0.0631888 0.0562824 7.9 -0.0633613 0.0562635 8.05 -0.0635422
0.0562468 8.2 -0.0637216 0.056231 8.35 -0.0638992 0.0562159 8.5 -0.0640751 0.0562017
8.65 -0.0642403 0.0561863 8.8 -0.0644145 0.0561738 8.95 -0.0645867 0.0561623 9.1
-0.064757 0.0561517 9.25 -0.0649252 0.056142 9.4 -0.065082 0.0561308 9.55 -0.0652488
0.0561229 9.7 -0.0654145 0.0561155 9.85 -0.065579 0.0561088 10 -0.0657425 0.0561026
-1.001 -0.05 0.106363 -0.900818 -0.0500694 0.106131 -0.800636 -0.0501338 0.105849 -0.700455
-0.0502233 0.105517 -0.600274 -0.0503819 0.104954 -0.50009 -0.0506093 0.104161 -0.424996 -0.0508872
0.10355 -0.349903 -0.051226 0.102909 -0.274809 -0.0515582 0.102329 -0.199714 -0.0518257 0.10186
-0.124611 -0.0521155 0.10173 -0.0496085 -0.0522803 0.101823 0.0253943 -0.0523725 0.102038 0.100397
-0.0524455 0.102341 0.175399 -0.0525334 0.102739 0.25041 -0.0526359 0.103232 0.400346 -0.0528156
0.104265 0.550282 -0.0530013 0.105187 0.700219 -0.0531631 0.106014 0.850157 -0.0533054 0.10666
1.00009 -0.0534279 0.107124 1.15007 -0.0536834 0.107374 1.30006 -0.0538282 0.107661 1.45005
-0.0539434 0.107932 1.60003 -0.0540531 0.108165 1.75002 -0.0541573 0.108361 1.90002 -0.0543458
0.108494 2.05002 -0.0544693 0.108638 2.20001 -0.0545904 0.108767 2.35001 -0.0547095 0.10888
2.50001 -0.0548266 0.108977 2.65001 -0.0550128 0.109038 2.80001 -0.0551493 0.1091 2.95001
-0.0552846 0.109154 3.10001 -0.0554188 0.109199 3.25001 -0.0555518 0.109236 3.40001 -0.0557359
0.109258 3.55001 -0.0558775 0.109279 3.70001 -0.0560175 0.109298 3.85001 -0.0561557 0.109312
4 -0.0562923 0.109324 4.15 -0.0564704 0.109332 4.3 -0.0566107 0.109333 4.45
-0.056749 0.109333 4.6 -0.0568854 0.109331 4.75 -0.0570197 0.109327 4.9 -0.05719
0.109326 5.05 -0.0573261 0.109314 5.2 -0.0574603 0.1093 5.35 -0.0575925 0.109286
5.5 -0.0577226 0.10927 5.65 -0.0578852 0.109262 5.8 -0.058016 0.109241 5.95
-0.058145 0.109218 6.1 -0.058272 0.109195 6.25 -0.0583971 0.109172 6.4 -0.0585525
0.10916 6.55 -0.0586775 0.109133 6.7 -0.0588008 0.109105 6.85 -0.0589223 0.109078
7 -0.0590419 0.10905 7.15 -0.0591906 0.109037 7.3 -0.0593099 0.109007 7.45
-0.0594277 0.108978 7.6 -0.0595436 0.108949 7.75 -0.0596577 0.10892 7.9 -0.0598001
0.108908 8.05 -0.0599138 0.10888 8.2 -0.0600259 0.108852 8.35 -0.0601364 0.108825
8.5 -0.0602451 0.108798 8.65 -0.0603815 0.108788 8.8 -0.0604898 0.108763 8.95
-0.0605963 0.108739 9.1 -0.0607009 0.108715 9.25 -0.0608034 0.108693 9.4 -0.0609331
0.108686 9.55 -0.0610348 0.108664 9.7 -0.0611356 0.108643 9.85 -0.0612352 0.108622
10 -0.0613337 0.108602 -1.001 -0.05 0.158995 -0.900796 -0.0500812 0.158762 -0.800593
-0.0501737 0.158404 -0.700392 -0.0503197 0.157645 -0.600196 -0.0505322 0.156396 -0.499992 -0.050801
0.154501 -0.424719 -0.0513899 0.152845 -0.349434 -0.0518559 0.151886 -0.274144 -0.052242 0.151283
-0.198852 -0.0526088 0.150948 -0.123694 -0.052866 0.150964 -0.048777 -0.0528788 0.151085 0.0261383
-0.0528313 0.151539 0.101052 -0.052834 0.152231 0.175964 -0.0528555 0.153024 0.250942 -0.0528657
0.153852 0.400782 -0.0528128 0.155268 0.550623 -0.0530148 0.156482 0.700468 -0.0532198 0.157273
0.850313 -0.0533819 0.157874 1.00014 -0.0535243 0.158292 1.15012 -0.0537991 0.158497 1.30009
-0.0539633 0.158739 1.45007 -0.0540751 0.158983 1.60005 -0.0541438 0.159222 1.75002 -0.0542071
0.159424 1.90002 -0.0543549 0.159562 2.05002 -0.0544378 0.159712 2.20002 -0.0545175 0.159849
2.35001 -0.0545945 0.15997 2.50001 -0.0546696 0.160076 2.65001 -0.0548138 0.160146 2.80001
-0.0549084 0.160217 2.95001 -0.0550018 0.160281 3.10001 -0.055094 0.160338 3.25001 -0.0551851
0.160386 3.40001 -0.0553271 0.16042 3.55001 -0.0554269 0.160453 3.70001 -0.0555251 0.160483
3.85001 -0.0556219 0.16051 4 -0.055717 0.160534 4.15 -0.0558532 0.160554 4.3
-0.0559519 0.160568 4.45 -0.0560491 0.160581 4.6 -0.0561444 0.160591 4.75 -0.0562379
0.160599 4.9 -0.0563667 0.160611 5.05 -0.0564618 0.160611 5.2 -0.0565556 0.160609
5.35 -0.0566477 0.160606 5.5 -0.0567379 0.160602 5.65 -0.05686 0.160605 5.8
-0.0569507 0.160595 5.95 -0.0570403 0.160583 6.1 -0.0571284 0.16057 6.25 -0.0572145
0.160556 6.4 -0.0573304 0.160554 6.55 -0.0574165 0.160537 6.7 -0.0575016 0.160518
6.85 -0.0575853 0.160498 7 -0.0576671 0.160478 7.15 -0.0577774 0.160473 7.3
-0.057859 0.160451 7.45 -0.0579398 0.160429 7.6 -0.0580193 0.160406 7.75 -0.0580969
0.160384 7.9 -0.0582021 0.160378 8.05 -0.0582794 0.160356 8.2 -0.0583557 0.160333
8.35 -0.0584309 0.160311 8.5 -0.0585043 0.16029 8.65 -0.0586047 0.160285 8.8
-0.0586777 0.160265 8.95 -0.0587499 0.160245 9.1 -0.0588208 0.160225 9.25 -0.0588897
0.160206 9.4 -0.0589849 0.160203 9.55 -0.0590529 0.160185 9.7 -0.0591206 0.160168
9.85 -0.0591876 0.16015 10 -0.0592535 0.160133 -1.001 -0.05 0.211626 -0.947537
-0.0500742 0.211464 -0.894074 -0.0501516 0.211266 -0.840611 -0.0502321 0.211033 -0.787149 -0.0503564
0.210733 -0.723426 -0.0505893 0.210232 -0.678727 -0.0508574 0.209558 -0.634032 -0.0511814 0.20865
-0.58934 -0.0515082 0.207601 -0.544651 -0.0518388 0.206411 -0.499928 -0.0521747 0.205077 -0.471612
-0.0524366 0.204067 -0.443297 -0.0527078 0.202995 -0.414979 -0.0529654 0.202038 -0.386656 -0.0532103
0.201191 -0.343432 -0.0535681 0.200029 -0.299702 -0.0539103 0.198999 -0.255968 -0.0542436 0.198139
-0.212228 -0.0545681 0.197646 -0.168486 -0.0548556 0.197496 -0.124869 -0.0550482 0.197646 -0.0496019
-0.0552315 0.198308 0.0256626 -0.0552233 0.199209 0.100922 -0.0551582 0.200444 0.176181 -0.055113
0.201764 0.251478 -0.0550661 0.202883 0.262226 -0.0550558 0.20302 0.272974 -0.0550462 0.203156
0.283722 -0.0550368 0.203288 0.29447 -0.0550275 0.203418 0.30707 -0.0550167 0.203568 0.370712
-0.0549631 0.204304 0.434354 -0.0549174 0.204951 0.497998 -0.0548822 0.205511 0.561642 -0.0548802
[...]
POINT_DATA 2595
FIELD attributes 4
age 1 2595 float
0 0.00501122 0.0100224 0.0150337 0.0200449 0.0250561 0.0288057 0.0325533 0.0363011 0.0400488 0.0437965
0.0475449 0.0512904 0.0550358 0.0587813 0.0625267 0.0700233 0.0775223 0.0850212 0.0925201 0.100019
0.107519 0.115019 0.122519 0.130019 0.137519 0.145019 0.152519 0.160019 0.167519 0.175019
0.182519 0.190018 0.197518 0.205018 0.212517 0.220017 0.227517 0.235017 0.242516 0.250016
0.257516 0.265016 0.272515 0.280015 0.287515 0.295015 0.302515 0.310014 0.317514 0.325014
0.332514 0.340014 0.347513 0.355013 0.362513 0.370013 0.377513 0.385012 0.392512 0.400012
0.407512 0.415012 0.422511 0.430011 0.437511 0.445011 0.452511 0.460011 0.46751 0.47501
0.48251 0.49001 0.49751 0.50501 0.512509 0.52001 0.527509 0.535007 0.542505 0.550003
0 0.00502634 0.0100539 0.0150754 0.0200884 0.0250931 0.0288318 0.0325647 0.0362907 0.0400096
0.0437219 0.0474265 0.0511239 0.0548195 0.058515 0.0622121 0.069619 0.0770517 0.0845002 0.0919648
0.0994451 0.106803 0.114162 0.121523 0.128886 0.134588 0.135057 0.135527 0.135997 0.136467
0.136937 0.144441 0.151944 0.159446 0.166947 0.174448 0.181948 0.189447 0.196946 0.204444
0.211942 0.219441 0.226938 0.234436 0.241933 0.249431 0.256929 0.264426 0.271924 0.279422
0.28692 0.294418 0.301917 0.309415 0.316913 0.324412 0.331911 0.33941 0.346909 0.354407
0.361906 0.369406 0.376905 0.384404 0.391904 0.399403 0.406903 0.414402 0.421902 0.429402
0.436901 0.444402 0.451901 0.459401 0.466901 0.474401 0.481902 0.489402 0.496902 0.504402
0.511903 0.519404 0.526904 0.534405 0.541905 0.549406 0 0.00502842 0.0100587 0.0150829
0.0201005 0.0251114 0.0288583 0.0325981 0.0363284 0.0400535 0.0437684 0.0474715 0.0511685 0.0548643
0.0585591 0.0622533 0.0696472 0.0770684 0.0845089 0.0919727 0.0994595 0.106964 0.11447 0.12198
0.129492 0.137005 0.144523 0.152036 0.159547 0.167058 0.174568 0.182083 0.189591 0.197099
0.204607 0.212114 0.219626 0.227133 0.234639 0.242146 0.249652 0.257164 0.264671 0.272177
0.279684 0.287191 0.294704 0.302211 0.309718 0.317225 0.324732 0.332245 0.339753 0.347261
0.354768 0.362276 0.369789 0.377297 0.384805 0.392313 0.399821 0.407335 0.414843 0.422351
0.429859 0.437367 0.444881 0.45239 0.459898 0.467407 0.474915 0.482429 0.489938 0.497447
0.504955 0.512464 0.519979 0.527488 0.534997 0.542506 0.550015 0 0.00503061 0.0100674
0.0151013 0.020129 0.0251519 0.0289186 0.0326729 0.0364148 0.040146 0.0438597 0.0475528 0.0512402
0.0549262 0.0586113 0.0622999 0.0696816 0.0771 0.0845497 0.0920185 0.0995097 0.107023 0.114539
0.12206 0.129585 0.137112 0.144645 0.152172 0.159699 0.167224 0.174749 0.182279 0.189803
0.197326 0.204848 0.21237 0.219898 0.227419 0.234941 0.242462 0.249983 0.257511 0.265032
0.272554 0.280075 0.287597 0.295124 0.302646 0.310168 0.31769 0.325212 0.33274 0.340262
0.347784 0.355306 0.362829 0.370357 0.377879 0.385402 0.392924 0.400447 0.407975 0.415497
0.42302 0.430543 0.438065 0.445593 0.453116 0.460639 0.468162 0.475685 0.483213 0.490736
0.498259 0.505782 0.513305 0.520834 0.528357 0.53588 0.543403 0.550927 0 0.00268798
0.00537769 0.00806915 0.01076 0.0139652 0.0162123 0.0184591 0.0207051 0.0229503 0.0251964 0.0266165
0.0280349 0.0294507 0.0308639 0.0330162 0.0351859 0.0373487 0.0395049 0.0416546 0.0437913 0.0474688
0.0511466 0.0548249 0.0585096 0.062207 0.0627359 0.0632651 0.0637944 0.064324 0.064945 0.0680833
0.0712289 0.0743821 0.0775431 0.0807116 0.0811837 0.0816558 0.082128 0.0826002 0.0830622 0.0863362
0.0896135 0.0928941 0.0961779 0.0994645 0.106987 0.114511 0.122041 0.129576 0.137116 0.144663
0.152204 0.159744 0.167284 0.174823 0.182367 0.189905 0.197443 0.20498 0.212516 0.220058
0.227594 0.23513 0.242666 0.250201 0.257743 0.265279 0.272814 0.28035 0.287886 0.295428
0.302964 0.3105 0.318036 0.325572 0.333114 0.34065 0.348186 0.355723 0.363259 0.370801
0.378337 0.385874 0.39341 0.400947 0.408489 0.416025 0.423562 0.431098 0.438635 0.446177
0.453713 0.46125 0.468786 0.476323 0.483865 0.491402 0.498939 0.506475 0.514012 0.521554
0.529091 0.536628 0.544165 0.551702 0 0.00126474 0.00252986 0.0037957 0.00506237 0.0063299
0.0101187 0.0139159 0.0177249 0.0215414 0.0253401 0.0268327 0.0283159 0.0297929 0.0312639 0.0325196
0.0329453 0.0333704 0.033795 0.0342191 0.0346431 0.0364731 0.0382964 0.0401108 0.04192 0.043719
0.0455218 0.0473272 0.0491441 0.050966 0.0527917 0.0533037 0.0538159 0.0543282 0.0548408 0.0554469
0.0567483 0.0580513 0.0593558 0.0606622 0.06197 0.0656619 0.0693704 0.0730978 0.0768374 0.0805876
0.0843531 0.0881171 0.091882 0.0956494 0.09942 0.106961 0.114507 0.122057 0.129611 0.137168
0.144736 0.152297 0.159858 0.167417 0.174976 0.182538 0.190096 0.197653 0.20521 0.212766
0.220325 0.22788 0.235436 0.242991 0.250546 0.258105 0.26566 0.273215 0.28077 0.288325
0.295884 0.303439 0.310995 0.31855 0.326106 0.333664 0.34122 0.348776 0.356331 0.363887
0.371445 0.379001 0.386557 0.394112 0.401668 0.409227 0.416782 0.424338 0.431893 0.439449
0.447008 0.454563 0.462119 0.469674 0.47723 0.484788 0.492344 0.499899 0.507455 0.51501
0.522569 0.530125 0.53768 0.545236 0.552792 0 0.00126586 0.00253225 0.00379917 0.00506661
0.00633461 0.0082297 0.0101273 0.0120273 0.0139303 0.0158354 0.017754 0.0196776 0.0216022 0.0235303
0.0254712 0.0264436 0.0274132 0.0283784 0.029339 0.0302996 0.0307298 0.0311588 0.031586 0.0320115
0.0324665 0.0329716 0.0334741 0.0339742 0.0344719 0.0349666 0.0358782 0.0367869 0.0376915 0.0385921
0.0394836 0.0403746 0.0412644 0.0421535 0.0430423 0.0439312 0.0457115 0.0475046 0.0493095 0.0507808
0.0529474 0.0547776 0.0566205 0.0584745 0.0603354 0.0621979 0.0640694 0.0659425 0.0678183 0.0696967
0.0715793 0.0734736 0.0753584 0.0772407 0.0791254 0.081015 0.0835839 0.0861553 0.0887269 0.0912988
0.0935452 0.0948435 0.0961423 0.0974414 0.0987409 0.100041 0.107645 0.115255 0.122866 0.130478
0.138091 0.145721 0.153336 0.160947 0.168557 0.176166 0.183784 0.191391 0.198997 0.206602
0.214207 0.221821 0.229425 0.237029 0.244633 0.252236 0.259849 0.267452 0.275055 0.282658
0.290262 0.297874 0.305477 0.31308 0.320683 0.328286 0.335898 0.343501 0.351104 0.358707
0.36631 0.373921 0.381524 0.389127 0.39673 0.404333 0.411943 0.419546 0.427149 0.434751
0.442354 0.449964 0.457566 0.465169 0.472771 0.480373 0.487983 0.495585 0.503187 0.51079
0.518392 0.526001 0.533603 0.541205 0.548808 0.55641 0 0.00126312 0.00252694 0.00379183
0.00505796 0.00632534 0.00823623 0.0101492 0.012066 0.0139863 0.0159119 0.0178304 0.0197621 0.021707
0.023665 0.0256457 0.0266473 0.02765 0.0286536 0.0296565 0.0306718 0.0308941 0.0311163 0.0313384
0.0315588 0.031735 0.0325126 0.033277 0.034028 0.0347642 0.0354939 0.0359432 0.0363908 0.036837
0.037282 0.0377214 0.0381612 0.0385986 0.0390337 0.039468 0.0398992 0.0403334 0.0407677 0.0412021
0.0416369 0.042074 0.0425115 0.0429483 0.043385 0.0438223 0.0442621 0.0451422 0.0460316 0.0469313
0.0478406 0.0487687 0.0497078 0.0506441 0.0515829 0.0525275 0.0534772 0.0536858 0.0538947 0.0541038
0.0543131 0.0545525 0.0552972 0.0560428 0.0567892 0.0575364 0.0582833 0.0592525 0.0602192 0.0611895
0.0621637 0.0631409 0.0651284 0.0671071 0.0690804 0.0710604 0.0730306 0.0749757 0.0769481 0.0789397
0.0809348 0.0829234 0.0868923 0.0908546 0.0947851 0.0986983 0.10261 0.11041 0.118181 0.125888
0.133556 0.141225 0.148916 0.156592 0.164264 0.171931 0.179597 0.18727 0.194934 0.202597
0.210258 0.217918 0.225586 0.233246 0.240904 0.248562 0.25622 0.263886 0.271543 0.279201
0.286858 0.294515 0.302179 0.309835 0.317492 0.325148 0.332804 0.340467 0.348123 0.355779
0.363434 0.37109 0.378751 0.386407 0.394062 0.401716 0.409371 0.417031 0.424686 0.43234
0.439994 0.447648 0.455307 0.462961 0.470614 0.478267 0.485921 0.493579 0.501232 0.508885
0.516538 0.52419 0.531848 0.539501 0.547153 0.554806 0.562459 0 0.00126485 0.00253036
0.00379653 0.00506337 0.0063315 0.00824944 0.0101699 0.0120937 0.0140239 0.0159666 0.0169376 0.0179115
0.0188885 0.0198688 0.0208523 0.021841 0.022838 0.0238441 0.0248593 0.0258851 0.0264037 0.0269242
0.0274484 0.0279763 0.0285106 0.0287797 0.0290501 0.0293225 0.0295972 0.0296986 0.0300162 0.0303355
0.0306561 0.0309766 0.0313063 0.0314239 0.0315414 0.0316592 0.0317772 0.0318679 0.0318679 0.031868
0.0318681 0.0318681 0.0318682 0.0320465 0.0322246 0.0324026 0.0325804 0.0327601 0.0329211 0.0330818
0.0332422 0.0334002 0.0335204 0.0336425 0.0337639 0.0338845 0.0340039 0.0341254 0.0342547 0.0343818
0.034507 0.0346308 0.0347289 0.0347507 0.0347725 0.0347942 0.0348158 0.0348373 0.0349518 0.0350656
0.0351789 0.0352913 0.0354031 0.0355038 0.0356036 0.0357024 0.0358005 0.0359505 0.0360805 0.03621
0.0363395 0.0364685 0.0365788 0.036693 0.0368074 0.0369218 0.0370361 0.0372879 0.03737 0.037452
0.037534 0.0376158 0.037697 0.0378338 0.0379701 0.0381066 0.0382434 0.0386184 0.0386536 0.0386888
0.038724 0.0387592 0.0387943 0.0390141 0.0392339 0.0394541 0.0396746 0.0398298 0.0398429 0.039856
0.0398691 0.0398822 0.0398954 0.0401169 0.0403385 0.0405602 0.0407821 0.0410044 0.0412258 0.0414468
0.041668 0.0418892 0.042112 0.042336 0.0425582 0.0427808 0.043004 0.0432281 0.0436405 0.0440553
0.0444786 0.0449095 0.0450474 0.0451478 0.0452483 0.0453489 0.0454497 0.045551 0.0460378 0.0465189
0.047 0.0474767 0.047971 0.0484828 0.0489848 0.0494886 0.0499963 0.0505102 0.0506472 0.0507844
0.0509221 0.0510609 0.0511978 0.0521435 0.0531307 0.0541409 0.0551198 0.0561024 0.0572881 0.0584446
0.0596068 0.0607827 0.0619684 0.0624765 0.0629811 0.0634868 0.0639936 0.0645371 0.0649051 0.0652739
0.0656435 0.0660137 0.0664343 0.0667586 0.0670828 0.067407 0.0677311 0.0680549 0.0692787 0.0704941
0.0717112 0.0729297 0.0741403 0.0753286 0.0765422 0.077772 0.0790093 0.080235 0.0826278 0.0850159
0.0874099 0.0897727 0.0920937 0.0967088 0.101299 0.105844 0.110334 0.114608 0.122774 0.130871
0.138898 0.146855 0.15474 0.162501 0.170263 0.178022 0.185777 0.193529 0.200801 0.208072
0.215342 0.22261 0.230192 0.230605 0.231017 0.23143 0.231843 0.232256 0.239996 0.247736
0.255475 0.263214 0.270953 0.278687 0.286425 0.294162 0.3019 0.309637 0.317368 0.325104
0.332841 0.340577 0.348313 0.35604 0.363776 0.371511 0.379247 0.386982 0.394706 0.402441
0.410176 0.41791 0.425645 0.433366 0.4411 0.448834 0.456568 0.464302 0.47202 0.479754
0.487487 0.49522 0.502953 0.510669 0.518402 0.526135 0.533868 0.541601 0.549315 0.557047
0.56478 0.572513 0.580246 0 0.0012545 0.00250996 0.0037668 0.00502514 0.00628512 0.00821743
0.0101525 0.0120904 0.0140356 0.0159953 0.016969 0.0179465 0.0189282 0.0199139 0.0209038 0.0218994
0.0229059 0.0239242 0.0249544 0.0259978 0.0265274 0.0270604 0.0276002 0.0281469 0.0287025 0.0292696
0.0298444 0.030432 0.0310338 0.0316639 0.0319848 0.0323058 0.0326276 0.0329504 0.033288 0.0333267
0.0333654 0.033404 0.0334427 0.0334774 0.0335986 0.0337197 0.0338385 0.0339554 0.0340364 0.0342015
0.0343636 0.0345227 0.0346786 0.0348393 0.034988 0.0351339 0.0352769 0.0354163 0.0355409 0.0356575
0.0357736 0.0358892 0.0360033 0.036112 0.0362337 0.0363521 0.0364675 0.0365823 0.0367348 0.0368391
0.0369432 0.0370471 0.0371508 0.0372463 0.0373726 0.037499 0.0376267 0.0377556 0.0379558 0.0382872
0.0386246 0.0389684 0.0393075 0.0396342 0.0400999 0.0405577 0.0410119 0.0414631 0.0419099 0.0423779
0.042824 0.0432727 0.0437248 0.0441854 0.0446707 0.0451522 0.045633 0.0461206 0.0466157 0.047105
0.0475984 0.0480942 0.0485927 0.0488472 0.0489267 0.0490062 0.0490858 0.0491655 0.0492455 0.0497823
0.0503131 0.0508425 0.0513705 0.0519052 0.0530311 0.0541382 0.0552777 0.0564674 0.0576614 0.0589239
0.0601605 0.0613864 0.06263 0.0638967 0.064531 0.0651605 0.0657919 0.0664261 0.0670888 0.0671055
0.0671222 0.0671389 0.0671556 0.0671722 0.0678268 0.0684795 0.0691309 0.0697809 0.0704335 0.0708968
0.0713534 0.0718082 0.0722658 0.0727057 0.072924 0.0731425 0.0733611 0.0735798 0.0737989 0.0744864
0.0751625 0.0758389 0.0765186 0.0772126 0.0786352 0.0800621 0.0814959 0.0829531 0.0844382 0.0874937
0.0905817 0.0935847 0.0964966 0.0992937 0.103573 0.107718 0.111679 0.11547 0.124526 0.124687
0.124849 0.12501 0.125171 0.125335 0.133647 0.141875 0.149948 0.157852 0.165592 0.173343
0.1811 0.188855 0.196608 0.204358 0.212092 0.219839 0.227585 0.235329 0.243072 0.250799
0.25854 0.266281 0.274022 0.281761 0.289483 0.297222 0.304961 0.3127 0.320438 0.328157
0.335895 0.343632 0.35137 0.359107 0.366822 0.374559 0.382296 0.390033 0.397769 0.405481
0.413217 0.420953 0.428689 0.436425 0.444134 0.451869 0.459604 0.467339 0.475074 0.482781
0.490515 0.498249 0.505984 0.513718 0.521422 0.529156 0.53689 0.544624 0.552357 0.56006
0.567794 0.575527 0.583261 0.590995 0 0.00125946 0.00251962 0.00378048 0.00504281 0.00630686
0.00823657 0.0101693 0.012105 0.0140483 0.0160061 0.01698 0.017958 0.0189402 0.0199266 0.0209173
0.021913 0.0229195 0.0239378 0.0249682 0.0260116 0.0265417 0.0270749 0.027614 0.0281598 0.028715
0.0292796 0.0298519 0.0304342 0.0310293 0.0316548 0.0316558 0.0316569 0.0316579 0.0316589 0.03166
0.0319771 0.0322951 0.0326135 0.032932 0.033263 0.0335134 0.0337624 0.0340092 0.0342495 0.0343456
0.0344423 0.0345381 0.0346329 0.0347268 0.0348231 0.035032 0.0352334 0.0354281 0.0356164 0.0357771
0.0358519 0.0359265 0.0360004 0.0360736 0.0361453 0.0361605 0.0361757 0.0361909 0.0362061 0.0362219
0.0363601 0.0364971 0.0366328 0.0367672 0.0369615 0.0370328 0.037104 0.0371751 0.0372462 0.0373139
0.0377773 0.0382466 0.03873 0.0392222 0.0396417 0.0401095 0.0405669 0.0410246 0.0414851 0.0419524
0.0424366 0.04291 0.0433844 0.0438624 0.0443462 0.0448534 0.0453482 0.045847 0.0463543 0.0468731
0.0479575 0.049073 0.0502548 0.0514603 0.0527334 0.052885 0.0530343 0.0531846 0.053336 0.0534956
0.0547196 0.0559998 0.0573465 0.0587732 0.0603111 0.0621152 0.0643888 0.0671117 0.0703549 0.0740754
0.0751083 0.076193 0.0772341 0.0782377 0.0804157 0.0808709 0.0813221 0.0817692 0.0822088 0.0826387
0.083248 0.0838468 0.0844298 0.0849981 0.0858107 0.0864924 0.087139 0.0877561 0.0883479 0.0889119
0.0931915 0.0966192 0.099653 0.102562 0.105336 0.108074 0.110774 0.113446 0.115991 0.118386
0.122996 0.127551 0.132026 0.136403 0.14068 0.148937 0.157171 0.165296 0.173253 0.18105
0.188763 0.196551 0.204337 0.212119 0.219899 0.227599 0.235372 0.243142 0.250911 0.258677
0.266372 0.274134 0.281895 0.289655 0.297413 0.305106 0.312861 0.320616 0.328369 0.336121
0.343813 0.351563 0.359312 0.36706 0.374807 0.382498 0.390243 0.397987 0.40573 0.413472
0.421162 0.428902 0.436642 0.444381 0.452119 0.459808 0.467544 0.47528 0.483015 0.490749
0.498437 0.506169 0.513901 0.521632 0.529363 0.53705 0.544779 0.552508 0.560236 0.567964
0.575651 0.583377 0.591103 0.598829 0.606554 0 0.00128033 0.00256132 0.00384363 0.00512747
0.00641287 0.00832031 0.0102304 0.0121432 0.0140627 0.0159946 0.0169676 0.0179437 0.0189232 0.0199062
0.0208928 0.0218882 0.0228929 0.0239075 0.0249323 0.0259696 0.0264098 0.0268516 0.0272968 0.0277455
0.0278714 0.0280231 0.0281752 0.0283273 0.0284796 0.0286322 0.0291774 0.029727 0.0302843 0.0308507
0.0314383 0.0315319 0.0316254 0.0317189 0.0318125 0.0318906 0.0320924 0.0322941 0.0324957 0.0326971
0.0329016 0.0329747 0.0330478 0.0331207 0.0331935 0.0332574 0.0334772 0.0336961 0.0339141 0.0341288
0.034351 0.0344106 0.0344698 0.0345285 0.034587 0.0346408 0.0346531 0.0346653 0.0346776 0.0346898
0.0347025 0.0349146 0.0351223 0.0353258 0.0355224 0.0357115 0.0357219 0.0357323 0.0357427 0.0357531
0.0357636 0.0358854 0.036006 0.0361252 0.0362453 0.0364161 0.0365027 0.0365887 0.0366741 0.0367585
0.0368414 0.0369138 0.036986 0.037058 0.03713 0.0372234 0.0373621 0.0375004 0.0376384 0.0377775
0.0379103 0.0381239 0.0383356 0.0385456 0.0387574 0.0389722 0.0391946 0.0394121 0.0396274 0.0398435
0.0400605 0.0402802 0.0404983 0.040717 0.0409364 0.0411564 0.0413797 0.0416013 0.0418232 0.0420454
0.0422681 0.042492 0.0427153 0.0429391 0.0431633 0.0433873 0.0438378 0.0442902 0.0447453 0.0452035
0.0456734 0.0461634 0.0466287 0.0470953 0.0475643 0.0480419 0.0485302 0.0490115 0.0494874 0.0499653
0.0504597 0.051489 0.0525182 0.0535565 0.0546136 0.0556946 0.0568048 0.0579147 0.0590315 0.0601633
0.0613222 0.0616298 0.0619346 0.0622407 0.0625484 0.062876 0.0637644 0.0646472 0.0655217 0.0663864
0.0672405 0.0684384 0.069602 0.0707646 0.0719256 0.0730784 0.0733193 0.0735596 0.0738001 0.0740409
0.0742819 0.0752027 0.0761259 0.0770521 0.0779824 0.0789168 0.0812389 0.0835297 0.0857936 0.0880362
0.0902744 0.0947735 0.0993241 0.103935 0.108439 0.112725 0.120958 0.129146 0.137277 0.14531
0.153177 0.160906 0.16865 0.17639 0.184125 0.191857 0.19957 0.207297 0.215023 0.222746
0.230468 0.238174 0.245893 0.25361 0.261327 0.269042 0.276746 0.28446 0.292172 0.299885
0.307596 0.315298 0.323008 0.330717 0.338425 0.346133 0.353833 0.36154 0.369245 0.376951
0.384655 0.392354 0.400057 0.40776 0.415462 0.423164 0.430861 0.438561 0.446261 0.45396
0.461659 0.469355 0.477053 0.48475 0.492447 0.500143 0.504269 0.508396 0.512523 0.51665
0.520802 0.524365 0.527928 0.531491 0.535054 0.538617 0.546311 0.554006 0.561701 0.569396
0.577091 0 0.00127795 0.00255662 0.00383646 0.00511764 0.00640015 0.00830269 0.0102072 0.0121148
0.0140272 0.015948 0.016913 0.01788 0.0188489 0.0198202 0.0207938 0.0217687 0.0227488 0.0237343
0.0247246 0.0257189 0.0267116 0.0277111 0.0287196 0.0297237 0.0307365 0.0307991 0.0308617 0.0309243
0.0309868 0.0310453 0.031986 0.0329073 0.0338081 0.0346877 0.0355677 0.0360205 0.0364712 0.0369202
0.037368 0.0378099 0.0381341 0.0384572 0.03878 0.0391024 0.0400105 0.0403681 0.0407259 0.0410836
0.0414413 0.0421966 0.0426338 0.0430717 0.0435102 0.0439495 0.0443895 0.0452704 0.0461577 0.0470532
0.0479557 0.0488671 0.0498045 0.0507307 0.0516494 0.0525709 0.0535055 0.0553104 0.0571506 0.0590036
0.0608769 0.0632325 0.0638204 0.0644081 0.0649936 0.0655767 0.0664283 0.0677498 0.0690715 0.0703977
0.0717282 0.0730623 0.0750252 0.077004 0.0789863 0.080972 0.0829582 0.0869079 0.0908718 0.0948333
0.0987778 0.10272 0.110667 0.118605 0.126481 0.134297 0.142052 0.144637 0.147222 0.149806
0.15239 0.155032 0.160137 0.165241 0.170345 0.175449 0.180553 0.188241 0.19594 0.203637
0.211333 0.219027 0.22671 0.234402 0.242094 0.249786 0.257477 0.265157 0.272846 0.280536
0.288224 0.295913 0.303591 0.311279 0.318966 0.326652 0.334339 0.342016 0.349702 0.357387
0.365071 0.372755 0.380432 0.388115 0.395798 0.40348 0.411163 0.418838 0.426519 0.4342
0.441881 0.449561 0.457235 0.464915 0.472594 0.480273 0.487951 0.495625 0.503303 0.51098
0.518658 0.526335 0.534008 0.541684 0.549361 0.557037 0.564713 0 0.00127451 0.00254966
0.00382529 0.00510219 0.00638038 0.00827722 0.0101762 0.0120776 0.0139821 0.0158909 0.0178017 0.0197182
0.02164 0.023567 0.0255027 0.0264756 0.0274454 0.0284105 0.0293705 0.0298199 0.0308755 0.0319237
0.0329611 0.033988 0.0350045 0.0359176 0.0368278 0.0377337 0.038637 0.0395304 0.0404248 0.0413176
0.0422092 0.0430994 0.0439864 0.0457652 0.0475593 0.0493665 0.0511832 0.0530181 0.0548559 0.0567006
0.0585574 0.0604219 0.0622913 0.0629063 0.0635216 0.0641371 0.0647528 0.0655227 0.0667584 0.0679951
0.069233 0.0704721 0.0717122 0.073606 0.0754969 0.0773878 0.0792802 0.0811738 0.0849732 0.0887725
0.0925745 0.0963793 0.100188 0.107857 0.115527 0.123145 0.130757 0.138382 0.146025 0.15366
0.161295 0.168928 0.176559 0.184197 0.191828 0.199458 0.207087 0.214714 0.222348 0.229975
0.237601 0.245227 0.252853 0.260484 0.26811 0.275735 0.28336 0.290985 0.298615 0.30624
0.313865 0.321489 0.329113 0.336742 0.344366 0.35199 0.359614 0.367237 0.374865 0.382488
0.390111 0.397734 0.405356 0.412984 0.420606 0.428228 0.43585 0.443471 0.451098 0.458719
0.466341 0.473962 0.481583 0.489208 0.496829 0.50445 0.51207 0.519691 0.527316 0.534936
0.542557 0.550177 0.557797 0 0.00127183 0.00254407 0.00381686 0.00509028 0.00636432 0.0101453
0.0139385 0.0177317 0.0215222 0.0253182 0.025739 0.0261588 0.0265781 0.0269966 0.0273573 0.0288216
0.0302803 0.0317335 0.0331812 0.0346337 0.0364781 0.0383119 0.0401293 0.0419422 0.0437501 0.0455637
0.0473738 0.0491829 0.0509991 0.0528258 0.0546591 0.0564934 0.0583305 0.0601707 0.0620138 0.0657126
0.0694259 0.073153 0.0769017 0.0806546 0.0844306 0.0882022 0.0919737 0.0957456 0.099519 0.107049