# vtk DataFile Version 2.0
tracks
ASCII
DATASET POLYDATA
POINTS 2585 float
-1.001 -0.05 0.0011 -0.900789 -0.0500215 0.00109731 -0.800577 -0.050043 0.00109463 -0.700366 -0.0500644
0.00109196 -0.600155 -0.0500858 0.00108929 -0.499943 -0.0501071 0.00108663 -0.424945 -0.050111 0.00107893
-0.349947 -0.0501519 0.00106881 -0.274949 -0.0501924 0.00105878 -0.19995 -0.0502326 0.00104884 -0.124952
-0.0502723 0.00103899 -0.0499538 -0.0502817 0.00103922 0.0250446 -0.0502906 0.00104794 0.100043 -0.0502995
0.00105673 0.175041 -0.0503084 0.0010656 0.25004 -0.0503175 0.00107454 0.400037 -0.0503115 0.00109061
0.550035 -0.0503096 0.00110481 0.700032 -0.0503076 0.0011192 0.85003 -0.0503057 0.00113378 1.00003
-0.0503037 0.00114855 1.15003 -0.0503143 0.00115574 1.30002 -0.05032 0.00116021 1.45002 -0.0503256
0.0011647 1.60002 -0.0503313 0.0011692 1.75002 -0.0503369 0.00117372 1.90002 -0.0503454 0.00117658
2.05002 -0.0503518 0.0011785 2.20001 -0.0503583 0.00118043 2.35001 -0.0503647 0.00118236 2.50001
-0.0503711 0.00118429 2.65001 -0.0503791 0.00118533 2.80001 -0.0503871 0.00118601 2.95001 -0.0503951
0.00118669 3.10001 -0.0504031 0.00118737 3.25001 -0.0504111 0.00118805 3.40001 -0.0504189 0.00118833
3.55001 -0.0504276 0.0011889 3.70001 -0.0504364 0.00118946 3.85001 -0.0504451 0.00119003 4.00001
-0.0504539 0.00119059 4.15 -0.0504616 0.00119067 4.3 -0.0504711 0.00119133 4.45 -0.0504806
0.00119199 4.6 -0.0504901 0.00119265 4.75 -0.0504996 0.00119331 4.9 -0.0505072 0.0011933
5.05 -0.0505172 0.00119412 5.2 -0.0505272 0.00119494 5.35 -0.0505373 0.00119576 5.5
-0.0505473 0.00119658 5.65 -0.0505548 0.00119653 5.8 -0.0505651 0.00119751 5.95 -0.0505754
0.00119849 6.1 -0.0505857 0.00119947 6.25 -0.0505961 0.00120045 6.4 -0.0506035 0.00120038
6.55 -0.050614 0.00120149 6.7 -0.0506245 0.00120261 6.85 -0.0506351 0.00120373 7
-0.0506456 0.00120485 7.15 -0.050653 0.00120475 7.3 -0.0506637 0.00120598 7.45 -0.0506743
0.00120721 7.6 -0.050685 0.00120843 7.75 -0.0506958 0.00120966 7.9 -0.050703 0.00120955
8.05 -0.0507138 0.00121087 8.2 -0.0507246 0.00121218 8.35 -0.0507354 0.0012135 8.5
-0.0507463 0.00121482 8.65 -0.0507535 0.0012147 8.8 -0.0507643 0.0012161 8.95 -0.0507752
0.00121749 9.1 -0.0507861 0.00121889 9.25 -0.050797 0.00122028 9.4 -0.0508042 0.00122015
9.55 -0.0508609 0.00122223 9.7 -0.0509686 0.00122502 9.85 -0.0511272 0.0012285 10
-0.0513368 0.00123268 -1.001 -0.05 0.0537316 -0.900807 -0.0501056 0.0535766 -0.800614 -0.0502115
0.0533943 -0.700421 -0.0503407 0.0531783 -0.600229 -0.0505008 0.0529266 -0.500035 -0.0506916 0.0526393
-0.425004 -0.0509392 0.0524166 -0.349973 -0.0512761 0.0521267 -0.274943 -0.0516603 0.0518577 -0.199912
-0.0520781 0.051631 -0.124879 -0.0524802 0.0514866 -0.0498864 -0.0527461 0.051523 0.0251064 -0.0529657
0.0516882 0.100099 -0.0531806 0.051922 0.175092 -0.0534048 0.052204 0.250087 -0.0536241 0.052521
0.400077 -0.0540091 0.0531557 0.550067 -0.0543913 0.0536701 0.700057 -0.0547323 0.0541359 0.850047
-0.055032 0.0545528 1.00003 -0.0552984 0.05492 1.1466 -0.055664 0.0551977 1.29317 -0.0559983
0.0554567 1.43973 -0.0563299 0.0556821 1.5863 -0.0566589 0.055874 1.70353 -0.05692 0.0560005
1.71283 -0.0569414 0.0560092 1.72212 -0.056963 0.0560177 1.73142 -0.0569847 0.0560262 1.74072
-0.0570065 0.0560346 1.75002 -0.0570284 0.0560429 1.90002 -0.0573834 0.0561759 2.05002 -0.057734
0.0562916 2.20001 -0.0580808 0.0563897 2.35001 -0.0584238 0.0564702 2.50001 -0.0587629 0.0565331
2.65001 -0.0591072 0.0565849 2.80001 -0.0594511 0.05663 2.95001 -0.0597942 0.0566673 3.10001
-0.0601364 0.056697 3.25001 -0.0604778 0.056719 3.40001 -0.0608203 0.056736 3.55001 -0.061164
0.0567522 3.70001 -0.0615063 0.0567664 3.85001 -0.0618471 0.0567786 4.00001 -0.0621864 0.0567887
4.15 -0.0625235 0.0567963 4.3 -0.0628644 0.056805 4.45 -0.0632038 0.056813 4.6
-0.0635417 0.0568201 4.75 -0.0638782 0.0568265 4.9 -0.0642099 0.0568307 5.05 -0.0645469
0.0568367 5.2 -0.0648826 0.0568424 5.35 -0.0652169 0.0568476 5.5 -0.0655498 0.0568525
5.65 -0.0658761 0.0568548 5.8 -0.0662087 0.0568596 5.95 -0.0665402 0.0568642 6.1
-0.0668704 0.0568686 6.25 -0.0671994 0.0568727 6.4 -0.0675205 0.0568738 6.55 -0.0678487
0.0568779 6.7 -0.0681757 0.0568819 6.85 -0.0685016 0.0568857 7 -0.0688263 0.0568894
7.15 -0.0691423 0.0568898 7.3 -0.069466 0.0568935 7.45 -0.0697886 0.0568971 7.6
-0.07011 0.0569005 7.75 -0.0704302 0.0569039 7.9 -0.0707412 0.0569037 8.05 -0.0710603
0.0569071 8.2 -0.0713782 0.0569106 8.35 -0.071695 0.056914 8.5 -0.0720107 0.0569174
8.65 -0.0723168 0.056917 8.8 -0.0726312 0.0569205 8.95 -0.0729444 0.0569238 9.1
-0.0732565 0.056927 9.25 -0.0735675 0.0569302 9.4 -0.0738684 0.0569294 9.55 -0.0741785
0.0569326 9.7 -0.074488 0.0569358 9.85 -0.074797 0.0569389 10 -0.0751055 0.056942
-1.001 -0.05 0.106363 -0.900818 -0.0500775 0.106138 -0.800636 -0.0501528 0.105866 -0.700455
-0.0502546 0.105547 -0.600274 -0.0504265 0.105005 -0.50009 -0.0506682 0.104243 -0.424996 -0.0509548
0.103657 -0.349901 -0.0513026 0.103051 -0.274807 -0.0516546 0.102513 -0.199711 -0.0519523 0.102083
-0.124607 -0.052294 0.10198 -0.0496048 -0.0525414 0.102092 0.0253974 -0.0527338 0.102321 0.100399
-0.0529134 0.102632 0.175401 -0.0531133 0.103028 0.250411 -0.0533333 0.103509 0.400346 -0.0537384
0.104507 0.550283 -0.0541416 0.105377 0.700219 -0.0545059 0.10616 0.850157 -0.0548395 0.106777
1.00009 -0.0551421 0.107227 1.15007 -0.0555801 0.107491 1.30006 -0.0558745 0.107788 1.45005
-0.0561182 0.108063 1.60003 -0.056356 0.108306 1.75002 -0.0565879 0.108517 1.90002 -0.0568935
0.108661 2.05002 -0.0571359 0.108816 2.20001 -0.0573726 0.108955 2.35001 -0.0576067 0.109076
2.50001 -0.0578383 0.109181 2.65001 -0.0581262 0.10925 2.80001 -0.0583722 0.109317 2.95001
-0.058617 0.109377 3.10001 -0.0588611 0.109429 3.25001 -0.0591045 0.109474 3.40001 -0.0593908
0.109508 3.55001 -0.0596407 0.109541 3.70001 -0.0598888 0.109573 3.85001 -0.0601352 0.109602
4 -0.0603801 0.109629 4.15 -0.0606603 0.109655 4.3 -0.0609103 0.109676 4.45
-0.0611583 0.109696 4.6 -0.0614049 0.109716 4.75 -0.0616499 0.109734 4.9 -0.0619237
0.109757 5.05 -0.0621717 0.109772 5.2 -0.0624181 0.109786 5.35 -0.062663 0.109801
5.5 -0.0629066 0.109814 5.65 -0.0631741 0.109835 5.8 -0.0634197 0.109846 5.95
-0.0636637 0.109856 6.1 -0.0639065 0.109866 6.25 -0.064148 0.109876 6.4 -0.0644096
0.109895 6.55 -0.0646524 0.109903 6.7 -0.0648937 0.109911 6.85 -0.0651339 0.109918
7 -0.0653729 0.109925 7.15 -0.0656287 0.109943 7.3 -0.0658684 0.109948 7.45
-0.0661068 0.109954 7.6 -0.066344 0.109959 7.75 -0.0665801 0.109963 7.9 -0.0668304
0.109981 8.05 -0.0670668 0.109984 8.2 -0.067302 0.109988 8.35 -0.0675361 0.109991
8.5 -0.0677691 0.109994 8.65 -0.068014 0.110011 8.8 -0.068247 0.110014 8.95
-0.0684788 0.110016 9.1 -0.0687094 0.110018 9.25 -0.0689388 0.11002 9.4 -0.0691781
0.110036 9.55 -0.0694079 0.110037 9.7 -0.0696371 0.110037 9.85 -0.0698658 0.110038
10 -0.0700941 0.110038 -1.001 -0.05 0.158995 -0.900796 -0.050088 0.15877 -0.800593
-0.0501919 0.158425 -0.700392 -0.0503528 0.157688 -0.600196 -0.0505836 0.156475 -0.499992 -0.050876
0.154634 -0.42472 -0.0514829 0.153031 -0.349436 -0.0519499 0.152109 -0.274149 -0.052346 0.151546
-0.198859 -0.0527401 0.151251 -0.123699 -0.0530564 0.151303 -0.0487804 -0.0531782 0.151465 0.0261371
-0.0532554 0.151943 0.101053 -0.0533941 0.152646 0.175967 -0.0535595 0.153442 0.250943 -0.0537121
0.154269 0.400783 -0.0539214 0.155687 0.550624 -0.0544245 0.156863 0.700468 -0.0548929 0.157616
0.850313 -0.0552878 0.158213 1.00014 -0.0556515 0.158643 1.15012 -0.0561514 0.158888 1.30009
-0.0565072 0.159165 1.45007 -0.0567702 0.159433 1.60005 -0.0569568 0.159687 1.75002 -0.0571375
0.159908 1.90002 -0.0573929 0.160063 2.05002 -0.0575847 0.160228 2.20002 -0.0577644 0.16038
2.35001 -0.0579355 0.160516 2.50001 -0.0581041 0.160635 2.65001 -0.0583295 0.160718 2.80001
-0.0585128 0.1608 2.95001 -0.0586939 0.160875 3.10001 -0.0588733 0.160943 3.25001 -0.0590521
0.161003 3.40001 -0.059274 0.161053 3.55001 -0.0594595 0.161102 3.70001 -0.0596423 0.161149
3.85001 -0.0598228 0.161195 4 -0.0600019 0.161238 4.15 -0.0602161 0.16128 4.3
-0.0604002 0.161318 4.45 -0.0605818 0.161355 4.6 -0.0607611 0.161392 4.75 -0.0609391
0.161427 4.9 -0.0611455 0.161467 5.05 -0.0613265 0.161499 5.2 -0.0615052 0.16153
5.35 -0.0616821 0.161562 5.5 -0.0618576 0.161593 5.65 -0.0620566 0.16163 5.8
-0.0622341 0.161658 5.95 -0.0624096 0.161686 6.1 -0.0625835 0.161713 6.25 -0.0627562
0.16174 6.4 -0.0629484 0.161777 6.55 -0.0631223 0.161801 6.7 -0.0632943 0.161826
6.85 -0.0634649 0.16185 7 -0.0636343 0.161874 7.15 -0.06382 0.16191 7.3
-0.0639901 0.161932 7.45 -0.0641586 0.161954 7.6 -0.0643256 0.161976 7.75 -0.0644915
0.161998 7.9 -0.0646712 0.162032 8.05 -0.0648375 0.162052 8.2 -0.0650023 0.162073
8.35 -0.0651657 0.162093 8.5 -0.0653281 0.162113 8.65 -0.0655019 0.162147 8.8
-0.0656643 0.162166 8.95 -0.0658251 0.162185 9.1 -0.0659846 0.162204 9.25 -0.0661429
0.162222 9.4 -0.0663106 0.162255 9.55 -0.0664693 0.162272 9.7 -0.066627 0.162289
9.85 -0.0667841 0.162306 10 -0.0669407 0.162323 -1.001 -0.05 0.211626 -0.947633
-0.0500803 0.211469 -0.894267 -0.0501652 0.211279 -0.8409 -0.0502545 0.211055 -0.787534 -0.0503885
0.210764 -0.724322 -0.050632 0.210286 -0.679443 -0.0509096 0.209636 -0.634569 -0.0512444 0.208757
-0.589697 -0.0515831 0.207741 -0.544829 -0.0519267 0.206587 -0.499928 -0.0522767 0.205293 -0.469456
-0.0525704 0.20424 -0.438985 -0.0528743 0.203124 -0.408511 -0.0531627 0.202134 -0.378032 -0.0534367
0.201266 -0.329886 -0.0538543 0.200029 -0.288869 -0.054194 0.19912 -0.247847 -0.0545334 0.198426
-0.206822 -0.0548769 0.198046 -0.165794 -0.055185 0.197954 -0.124884 -0.0554184 0.198125 -0.0496123
-0.0557234 0.198833 0.0256572 -0.0558594 0.19978 0.100922 -0.0559673 0.201057 0.176185 -0.0561088
0.202415 0.251487 -0.0562434 0.203567 0.252202 -0.0562445 0.203576 0.252916 -0.0562456 0.203585
0.253631 -0.0562467 0.203595 0.254345 -0.0562478 0.203604 0.255067 -0.0562488 0.203613 0.329108
-0.0563604 0.204577 0.40315 -0.0564738 0.205417 0.477194 -0.0565892 0.20613 0.551238 -0.0567334
[...]
POINT_DATA 2585
FIELD attributes 4
age 1 2585 float
0 0.00501121 0.0100224 0.0150336 0.0200449 0.0250561 0.0288056 0.0325533 0.036301 0.0400488 0.0437965
0.0475449 0.0512906 0.0550362 0.0587817 0.0625273 0.070024 0.077523 0.0850219 0.0925209 0.10002
0.10752 0.115019 0.122519 0.130019 0.137519 0.145019 0.152519 0.160019 0.167518 0.175018
0.182518 0.190018 0.197517 0.205017 0.212517 0.220017 0.227516 0.235016 0.242516 0.250015
0.257515 0.265015 0.272515 0.280015 0.287514 0.295014 0.302514 0.310014 0.317513 0.325013
0.332513 0.340013 0.347512 0.355012 0.362512 0.370012 0.377512 0.385011 0.392511 0.400011
0.407511 0.415011 0.42251 0.43001 0.43751 0.44501 0.45251 0.460009 0.467509 0.475009
0.482509 0.490009 0.497508 0.505008 0.512508 0.520008 0.527507 0.535005 0.542503 0.55
0 0.00502604 0.0100533 0.0150747 0.020088 0.0250931 0.0288322 0.0325654 0.0362919 0.0400116
0.043725 0.0474312 0.0511305 0.0548279 0.0585253 0.0622244 0.0696351 0.0770711 0.0845219 0.0919874
0.0994676 0.10679 0.114114 0.121439 0.128765 0.134625 0.13509 0.135555 0.13602 0.136485
0.13695 0.144451 0.151951 0.15945 0.166949 0.174447 0.181945 0.189443 0.19694 0.204437
0.211934 0.219431 0.226928 0.234425 0.241922 0.249419 0.256917 0.264415 0.271912 0.27941
0.286907 0.294406 0.301904 0.309402 0.3169 0.324398 0.331897 0.339396 0.346894 0.354393
0.361892 0.369391 0.37689 0.384389 0.391888 0.399387 0.406887 0.414387 0.421886 0.429386
0.436885 0.444386 0.451886 0.459386 0.466886 0.474386 0.481887 0.489388 0.496888 0.504389
0.51189 0.519392 0.526892 0.534393 0.541894 0.549395 0 0.00502803 0.0100579 0.0150819
0.0200995 0.0251106 0.0288577 0.0325977 0.0363285 0.0400544 0.0437705 0.0474752 0.0511742 0.0548721
0.058569 0.0622654 0.0696638 0.0770891 0.0845326 0.0919981 0.0994854 0.106989 0.114493 0.122
0.129509 0.137018 0.144533 0.152042 0.159551 0.167058 0.174565 0.182078 0.189584 0.197089
0.204594 0.212099 0.219611 0.227116 0.234621 0.242126 0.249632 0.257144 0.264649 0.272155
0.27966 0.287166 0.294679 0.302184 0.30969 0.317196 0.324702 0.332216 0.339722 0.347228
0.354734 0.362241 0.369754 0.377261 0.384768 0.392274 0.399781 0.407295 0.414802 0.422309
0.429816 0.437323 0.444838 0.452345 0.459853 0.46736 0.474868 0.482383 0.489891 0.497399
0.504907 0.512415 0.51993 0.527439 0.534947 0.542455 0.549963 0 0.00503013 0.0100663
0.0150996 0.0201271 0.0251497 0.0289155 0.0326694 0.0364114 0.040143 0.0438578 0.0475528 0.0512423
0.0549308 0.0586185 0.0623097 0.0696968 0.0771202 0.0845741 0.0920445 0.0995362 0.107048 0.114562
0.12208 0.129602 0.137126 0.144655 0.152178 0.159702 0.167224 0.174747 0.182274 0.189795
0.197316 0.204837 0.212357 0.219884 0.227404 0.234924 0.242445 0.249965 0.257492 0.265013
0.272534 0.280054 0.287575 0.295103 0.302624 0.310146 0.317667 0.325188 0.332716 0.340238
0.347759 0.355281 0.362803 0.370332 0.377853 0.385375 0.392897 0.400419 0.407949 0.415471
0.422993 0.430516 0.438038 0.445568 0.453091 0.460613 0.468136 0.475659 0.483189 0.490713
0.498236 0.505759 0.513282 0.520813 0.528337 0.53586 0.543384 0.550907 0 0.00268268
0.00536704 0.0080531 0.0107385 0.0139173 0.0161726 0.0184276 0.0206818 0.0229352 0.0251896 0.0267171
0.0282427 0.0297652 0.0312849 0.0336798 0.0357124 0.0377392 0.0397606 0.0417763 0.0437807 0.0474595
0.0511396 0.054821 0.0585089 0.0622096 0.0622448 0.06228 0.0623152 0.0623504 0.062386 0.0660335
0.0696909 0.0733582 0.0770356 0.0807229 0.0813093 0.0818957 0.0824821 0.0830686 0.0836409 0.0868036
0.089969 0.0931369 0.0963075 0.0994801 0.107001 0.114523 0.12205 0.129581 0.137118 0.144661
0.152198 0.159735 0.167272 0.174808 0.182351 0.189887 0.197422 0.204957 0.212492 0.220033
0.227568 0.235103 0.242638 0.250173 0.257715 0.26525 0.272785 0.280321 0.287856 0.295399
0.302935 0.31047 0.318006 0.325542 0.333085 0.340621 0.348157 0.355694 0.36323 0.370774
0.37831 0.385847 0.393383 0.40092 0.408464 0.416001 0.423538 0.431075 0.438612 0.446157
0.453694 0.461231 0.468769 0.476306 0.483851 0.491389 0.498927 0.506465 0.514003 0.521548
0.529086 0.536625 0.544163 0.551701 0 0.00126445 0.00252927 0.00379478 0.0050611 0.00632823
0.0101158 0.0139117 0.0177192 0.0215334 0.02533 0.0269109 0.0284817 0.0300456 0.0316024 0.0329897
0.0333183 0.0336465 0.0339744 0.0343021 0.0346297 0.036458 0.0382793 0.0400915 0.0418986 0.0436962
0.0454968 0.0473019 0.0491191 0.0509411 0.0527674 0.0529278 0.0530883 0.0532487 0.0534092 0.053578
0.0552473 0.0569193 0.058594 0.0602715 0.0619517 0.0656474 0.06936 0.0730906 0.076832 0.0805824
0.084346 0.0881087 0.091872 0.095638 0.0994065 0.106942 0.11448 0.122022 0.129568 0.137118
0.144684 0.152237 0.15979 0.167343 0.174895 0.182456 0.190007 0.197559 0.20511 0.212662
0.22022 0.227771 0.235322 0.242873 0.250425 0.257983 0.265534 0.273086 0.280637 0.288189
0.295748 0.3033 0.310852 0.318404 0.325956 0.333515 0.341067 0.34862 0.356172 0.363724
0.371284 0.378836 0.386389 0.393942 0.401494 0.409055 0.416607 0.42416 0.431713 0.439266
0.446827 0.45438 0.461933 0.469487 0.47704 0.484601 0.492154 0.499708 0.507262 0.514815
0.522377 0.52993 0.537484 0.545038 0.552591 0 0.00126545 0.00253142 0.0037979 0.00506489
0.00633243 0.00822682 0.0101236 0.0120228 0.0139249 0.0158291 0.0177466 0.0196689 0.0215923 0.0235188
0.0254576 0.0264289 0.0273974 0.0283615 0.0293212 0.0302808 0.0307559 0.0312294 0.0317008 0.0321702
0.0326828 0.0331389 0.033593 0.0340451 0.0344952 0.0349428 0.0358532 0.0367604 0.0376636 0.0385624
0.0394524 0.0403416 0.0412293 0.0421164 0.0430031 0.0438903 0.0452531 0.0466227 0.0479995 0.0493444
0.0528852 0.054714 0.0565565 0.0584103 0.0602708 0.0621321 0.0640032 0.0658756 0.0677501 0.0696272
0.0715083 0.0733968 0.0752798 0.077159 0.07904 0.0809262 0.0840385 0.0871551 0.0902733 0.0933931
0.0960341 0.096811 0.0975881 0.0983653 0.0991426 0.0999201 0.107514 0.115109 0.122708 0.130311
0.137918 0.145551 0.153157 0.16076 0.168362 0.175964 0.183585 0.191184 0.198782 0.206379
0.213977 0.221594 0.229191 0.236787 0.244383 0.25198 0.259594 0.267191 0.274786 0.282382
0.289978 0.297591 0.305187 0.312782 0.320378 0.327974 0.335586 0.343181 0.350776 0.358371
0.365967 0.373577 0.381172 0.388767 0.396362 0.403957 0.411566 0.419161 0.426755 0.43435
0.441944 0.449552 0.457147 0.464741 0.472335 0.479929 0.487536 0.49513 0.502723 0.510317
0.517911 0.525516 0.53311 0.540703 0.548297 0.55589 0 0.00126279 0.00252625 0.00379075
0.00505642 0.00632328 0.00823331 0.0101453 0.0120611 0.0139803 0.0159047 0.017822 0.0197523 0.0216954
0.0236513 0.0256296 0.0266296 0.0276305 0.0286317 0.0296321 0.0306445 0.0308919 0.0311394 0.0313865
0.0316316 0.0318216 0.0325724 0.0333108 0.0340361 0.0347476 0.0354511 0.0358981 0.0363435 0.0367873
0.0372296 0.037666 0.0381034 0.0385379 0.0389701 0.0394016 0.0398306 0.0402625 0.0406944 0.0411265
0.0415591 0.0419942 0.0424296 0.0428643 0.0432995 0.0437355 0.0441737 0.0450503 0.0459363 0.0468324
0.0477399 0.0486645 0.0494119 0.0501583 0.0509071 0.0516593 0.0525842 0.0527374 0.0528906 0.0530439
0.0531972 0.0533508 0.0543038 0.0552557 0.0562096 0.0571662 0.0581251 0.0590931 0.0600602 0.0610284
0.0619996 0.0629726 0.0649401 0.0669025 0.0688596 0.0708211 0.0727663 0.0746978 0.0766439 0.0786049
0.0805701 0.0825401 0.0865007 0.0904527 0.0943789 0.0982898 0.102204 0.110032 0.117827 0.12555
0.133215 0.140884 0.148582 0.156258 0.16393 0.171597 0.179262 0.186944 0.194607 0.202269
0.209929 0.217588 0.225262 0.232921 0.240579 0.248235 0.255891 0.263561 0.271217 0.278872
0.286526 0.29418 0.301846 0.309499 0.317152 0.324804 0.332456 0.340118 0.34777 0.35542
0.36307 0.37072 0.378379 0.386029 0.393677 0.401325 0.408973 0.416629 0.424276 0.431923
0.439569 0.447215 0.454868 0.462514 0.470159 0.477803 0.485447 0.493097 0.500741 0.508384
0.516026 0.523668 0.531315 0.538957 0.546598 0.554239 0.56188 0 0.00126441 0.00252947
0.00379518 0.00506154 0.00632915 0.0082462 0.0101657 0.0120884 0.0140174 0.0159587 0.0169288 0.0179017
0.0188779 0.0198572 0.0208397 0.0218273 0.0228231 0.0238278 0.0248415 0.0258657 0.0263833 0.0269027
0.0274258 0.0279525 0.0284855 0.0287769 0.0290697 0.0293649 0.0296627 0.0297604 0.0300597 0.0303603
0.0306618 0.0309631 0.0312727 0.0313695 0.0314663 0.0315633 0.0316606 0.0317315 0.0317671 0.0318027
0.0318382 0.0318738 0.0319077 0.0320705 0.0322331 0.0323956 0.032558 0.0327217 0.0329011 0.0330802
0.0332588 0.0334344 0.0335639 0.0336689 0.0337733 0.0338772 0.0339801 0.0340845 0.0341948 0.0343036
0.034411 0.0345173 0.0346042 0.0346594 0.0347141 0.0347686 0.0348228 0.0348757 0.0349729 0.0350696
0.0351658 0.0352616 0.0353553 0.0354781 0.0355995 0.0357195 0.0358383 0.0360331 0.0361325 0.0362314
0.03633 0.0364285 0.0365173 0.0366046 0.0366919 0.0367793 0.0368665 0.0370272 0.0371482 0.0372689
0.0373895 0.0375099 0.0376287 0.0378474 0.0380646 0.0382819 0.0384996 0.0387138 0.0389318 0.0391491
0.0393668 0.0395849 0.0398029 0.0400238 0.040243 0.0404625 0.0406822 0.0409028 0.0411231 0.041343
0.0415634 0.0417845 0.042008 0.0422328 0.0424558 0.042679 0.0429028 0.0431276 0.0434557 0.0437854
0.0441206 0.0444615 0.0446235 0.0447912 0.0449593 0.0451278 0.0452967 0.0454668 0.0459558 0.0464367
0.0469178 0.0473941 0.0478924 0.0484116 0.0489201 0.0494296 0.0499439 0.0504656 0.0505268 0.0505881
0.0506495 0.0507111 0.0507715 0.051791 0.0528522 0.0539591 0.0550281 0.0561096 0.0573165 0.0585016
0.0596884 0.0608811 0.0620736 0.0624666 0.0628588 0.0632509 0.0636431 0.0640844 0.0649012 0.0657097
0.0665153 0.0673232 0.0681298 0.0682583 0.0683867 0.0685146 0.0686421 0.0687683 0.0698329 0.0708918
0.0719488 0.0730038 0.0740535 0.0752083 0.0763843 0.077564 0.078745 0.0799284 0.0813683 0.0828091
0.084256 0.0857075 0.087528 0.088314 0.0890965 0.0898755 0.0906511 0.0914228 0.0959351 0.100423
0.104835 0.109155 0.113344 0.12152 0.129632 0.137672 0.145639 0.153524 0.161284 0.169045
0.176803 0.184558 0.192311 0.200059 0.207808 0.215555 0.2233 0.231042 0.238405 0.245767
0.253128 0.260487 0.267981 0.268331 0.268681 0.269031 0.269382 0.269732 0.277465 0.2852
0.292934 0.300668 0.308402 0.316128 0.323862 0.331596 0.339329 0.347063 0.354782 0.362516
0.370249 0.377983 0.385716 0.393429 0.401161 0.408894 0.416627 0.42436 0.432066 0.439798
0.44753 0.455262 0.462994 0.470694 0.478425 0.486156 0.493887 0.501618 0.509313 0.517043
0.524773 0.532502 0.540231 0.547921 0.555648 0.563376 0.571104 0.578832 0 0.00125411
0.00250916 0.00376552 0.00502333 0.0062827 0.008214 0.010148 0.0120848 0.0140286 0.0159868 0.0169595
0.017936 0.0189166 0.0199013 0.0208901 0.0218846 0.0228898 0.0239067 0.0249354 0.0259771 0.0265057
0.0270375 0.0275761 0.0281215 0.0286757 0.0292413 0.0298145 0.0304008 0.0310011 0.0316278 0.0319467
0.0322655 0.032585 0.0329056 0.0332406 0.0333141 0.0333875 0.0334609 0.0335344 0.0335939 0.0336681
0.0337409 0.033813 0.0338844 0.0339452 0.0341164 0.0342843 0.034449 0.0346102 0.0347769 0.0349196
0.0350596 0.0351969 0.0353309 0.0354503 0.0355706 0.0356903 0.0358095 0.035927 0.0360388 0.0361561
0.0362703 0.0363816 0.0364923 0.0366384 0.0367456 0.0368525 0.0369593 0.0370658 0.0371636 0.0373615
0.0375595 0.0377608 0.0379652 0.0383931 0.0386256 0.0388582 0.0390888 0.0393174 0.0395412 0.0400042
0.0404612 0.0409147 0.0413651 0.0418106 0.042267 0.0427088 0.043154 0.0436022 0.0440534 0.0445259
0.0449923 0.045471 0.0459541 0.0464451 0.0473195 0.0482143 0.0491237 0.0500164 0.0517743 0.0528954
0.0540192 0.0551664 0.0563333 0.0575324 0.0587877 0.0600157 0.0612281 0.0624501 0.063678 0.0645447
0.0653987 0.0662523 0.0671011 0.0682126 0.0685442 0.0688759 0.0692079 0.0695404 0.0698734 0.0706547
0.0714372 0.0722199 0.0730039 0.0739722 0.0743951 0.0748178 0.0752401 0.0756614 0.0760809 0.0773215
0.0785665 0.0798191 0.0810719 0.0823241 0.0848108 0.0873009 0.0897603 0.0921768 0.0945694 0.0993967
0.104179 0.108821 0.113327 0.11768 0.12182 0.125943 0.130049 0.134136 0.139598 0.143478
0.147318 0.151118 0.15488 0.158603 0.166363 0.17413 0.181895 0.189659 0.197422 0.205166
0.212927 0.220689 0.228449 0.236209 0.243942 0.251701 0.25946 0.267218 0.274976 0.282701
0.290459 0.298216 0.305974 0.313731 0.321449 0.329205 0.336962 0.344718 0.352475 0.360186
0.367941 0.375696 0.383452 0.391207 0.398912 0.406666 0.41442 0.422174 0.429928 0.437628
0.44538 0.453133 0.460885 0.468638 0.476332 0.484083 0.491834 0.499584 0.507336 0.515025
0.522774 0.530523 0.538272 0.546021 0.553704 0.56145 0.569196 0.576942 0.584689 0
0.00125903 0.00251873 0.00377912 0.00504092 0.00630437 0.00823305 0.0101646 0.0120992 0.0140411 0.0159972
0.0169701 0.017947 0.0189281 0.0199134 0.020903 0.0218974 0.0229025 0.0239192 0.0249477 0.0259892
0.0265182 0.0270501 0.0275877 0.0281321 0.0286857 0.0292487 0.0298193 0.0303995 0.0309922 0.0316145
0.0319306 0.0322475 0.0325647 0.0328819 0.0332116 0.0334499 0.0336868 0.0339218 0.0341507 0.0342474
0.0343508 0.0344532 0.0345544 0.0346546 0.0347574 0.034959 0.0351537 0.0353419 0.035524 0.0356786
0.0357545 0.0358301 0.0359051 0.0359793 0.0360623 0.0360629 0.0360635 0.0360641 0.0360646 0.0360652
0.0362106 0.0363546 0.0364972 0.0366385 0.0368452 0.0369215 0.0369978 0.037074 0.03715 0.0372222
0.0376814 0.0381454 0.0386225 0.0391072 0.0395216 0.0399834 0.0404344 0.0408839 0.0413353 0.0417942
0.042269 0.0427344 0.0431964 0.0436607 0.0441342 0.0446247 0.0451061 0.0455823 0.0460638 0.0465589
0.0475885 0.0486403 0.0497038 0.0507867 0.0516705 0.0517174 0.0517644 0.0518113 0.0518581 0.051905
0.053029 0.0541793 0.0553577 0.0565596 0.0577804 0.0590496 0.0602961 0.061523 0.0627666 0.0640042
0.064626 0.0652386 0.0658486 0.0664572 0.0670677 0.0676923 0.0683071 0.0689138 0.069521 0.0701343
0.0713817 0.0726388 0.0738928 0.0751416 0.0763799 0.0772287 0.0780691 0.0789105 0.0797539 0.0807062
0.0810897 0.0814733 0.0818571 0.0822415 0.0826266 0.0851308 0.0876203 0.0900947 0.0925128 0.0949025
0.0996576 0.104367 0.108965 0.113449 0.117789 0.125179 0.132466 0.139619 0.146641 0.159006
0.164649 0.17029 0.17593 0.181567 0.18735 0.189428 0.191507 0.193585 0.195664 0.197742
0.205481 0.213223 0.220963 0.228704 0.236443 0.244172 0.25191 0.259649 0.267388 0.275126
0.282846 0.290584 0.298322 0.30606 0.313798 0.321511 0.329248 0.336985 0.344723 0.35246
0.360167 0.367903 0.37564 0.383376 0.391113 0.398814 0.406549 0.414284 0.42202 0.429756
0.437451 0.445185 0.45292 0.460654 0.468388 0.476078 0.483811 0.491544 0.499278 0.507011
0.514696 0.522427 0.530159 0.537891 0.545622 0.553302 0.56103 0.56876 0.576489 0.584219
0 0.00127991 0.00256047 0.00384227 0.00512556 0.00641034 0.00831676 0.0102257 0.0121374 0.0140555
0.0159858 0.0169578 0.0179329 0.0189114 0.0198932 0.0208786 0.0218728 0.022876 0.023889 0.024912
0.0259471 0.0263885 0.0268315 0.0272779 0.0277277 0.0278516 0.0280014 0.0281515 0.0283017 0.0284519
0.0286025 0.0291459 0.0296936 0.0302484 0.0308121 0.0313967 0.0314721 0.0315475 0.0316229 0.0316983
0.0317637 0.0319806 0.0321974 0.0324141 0.0326307 0.0328507 0.0329301 0.0330093 0.0330886 0.0331676
0.0332361 0.0334475 0.0336581 0.0338677 0.0340739 0.0342866 0.0343494 0.0344117 0.0344736 0.0345351
0.0345883 0.0345928 0.0345973 0.0346018 0.0346064 0.0346109 0.0348266 0.0350378 0.0352445 0.0354438
0.0356347 0.035656 0.0356771 0.0356983 0.0357194 0.035741 0.0358436 0.0359453 0.0360459 0.0361478
0.0362935 0.0363868 0.0364794 0.0365715 0.0366626 0.0367513 0.036854 0.0369559 0.0370574 0.037159
0.0373046 0.0374052 0.0375056 0.0376059 0.0377071 0.0378059 0.0380177 0.0382276 0.0384369 0.0386455
0.0388576 0.0390776 0.039293 0.0395041 0.0397153 0.0399291 0.0401452 0.0403595 0.040573 0.0407871
0.0410035 0.0412243 0.0414417 0.0416579 0.0418745 0.0420919 0.0423107 0.0425279 0.0427451 0.0429627
0.0431814 0.0436261 0.0440713 0.0445197 0.0449715 0.0454313 0.0459095 0.0463759 0.0468346 0.0472961
0.0477713 0.0482537 0.0487343 0.0492147 0.0496989 0.0501909 0.0512071 0.0522289 0.0532622 0.0543484
0.0554525 0.0558193 0.0561865 0.0565549 0.0569248 0.057316 0.0581035 0.0588906 0.0596772 0.0604677
0.0612659 0.0624644 0.0636382 0.0648185 0.0660139 0.0672051 0.0684307 0.0696322 0.0708105 0.0719829
0.0731475 0.0736152 0.074082 0.0745493 0.0750171 0.0754757 0.0758137 0.0761518 0.0764902 0.0768287
0.0771769 0.0775424 0.0779082 0.0782742 0.0786405 0.0790066 0.0813495 0.0836943 0.0860389 0.0883533
0.0906395 0.0951435 0.0996996 0.104167 0.10849 0.112706 0.121013 0.129291 0.137507 0.145552
0.153427 0.161168 0.168909 0.176647 0.184381 0.192112 0.199839 0.207566 0.215292 0.223016
0.230738 0.238335 0.245932 0.253528 0.261123 0.26874 0.268857 0.268974 0.269091 0.269208
0.269324 0.277038 0.284752 0.292466 0.30018 0.307893 0.3156 0.323314 0.331027 0.338741
0.346455 0.354155 0.361869 0.369582 0.377295 0.385009 0.392704 0.400416 0.408129 0.415842
0.423554 0.431244 0.438956 0.446668 0.45438 0.462092 0.469777 0.477488 0.485199 0.49291
0.500621 0.508301 0.516011 0.523721 0.531431 0.539141 0.546815 0.554523 0.562231 0.56994
0.577649 0 0.00127752 0.00255575 0.0038351 0.00511573 0.00639764 0.0082992 0.0102027 0.0121091
0.0140202 0.0159395 0.0169037 0.0178697 0.0188376 0.0198079 0.0207803 0.021754 0.0227328 0.0237168
0.0247054 0.0256978 0.0266885 0.0276856 0.0286908 0.0296914 0.0306998 0.0307749 0.03085 0.0309252
0.0310001 0.0310694 0.0319917 0.0328944 0.0337767 0.0346378 0.0354962 0.0359441 0.0363897 0.0368332
0.0372756 0.0377126 0.0381511 0.038587 0.0390222 0.0394566 0.0398853 0.0403183 0.0407514 0.0411848
0.0416186 0.042053 0.0424891 0.0429241 0.04336 0.0437969 0.0442356 0.0451136 0.0460002 0.0468934
0.0477941 0.0487198 0.0496668 0.0506063 0.0515394 0.0524794 0.0534286 0.0541517 0.0548799 0.0556104
0.0563426 0.0574629 0.0576269 0.057791 0.0579552 0.0581195 0.0582839 0.0592674 0.0602504 0.0612337
0.0622168 0.0631989 0.0651986 0.0671851 0.069161 0.0711463 0.0731293 0.0750874 0.0770717 0.0790705
0.0810733 0.083078 0.0870891 0.0911175 0.0951143 0.0990661 0.103012 0.10589 0.108772 0.111662
0.114546 0.117939 0.122881 0.127795 0.132682 0.137543 0.142377 0.150087 0.157799 0.16551
0.173217 0.180922 0.188616 0.196316 0.204016 0.211713 0.21941 0.227096 0.234789 0.242482
0.250173 0.257863 0.265545 0.273233 0.280919 0.288605 0.29629 0.303969 0.311652 0.319334
0.327015 0.334695 0.342371 0.350049 0.357727 0.365404 0.37308 0.380752 0.388426 0.3961
0.403773 0.411445 0.419114 0.426785 0.434455 0.442124 0.449793 0.457459 0.465126 0.472792
0.480458 0.488123 0.495786 0.50345 0.511113 0.518776 0.526437 0.534097 0.541757 0.549417
0.557076 0.564736 0 0.00127408 0.00254878 0.00382394 0.00510032 0.00637792 0.00827381 0.0101718
0.0120721 0.0139755 0.0158829 0.0177922 0.0197067 0.021626 0.0235501 0.0254821 0.026453 0.0274208
0.0283837 0.0293417 0.0299615 0.0309794 0.0319896 0.0329894 0.0339789 0.0349567 0.0358656 0.0367711
0.0376726 0.0385711 0.0394605 0.0403511 0.0412402 0.0421281 0.0430151 0.0439015 0.0456786 0.0474731
0.049282 0.0511007 0.0529358 0.0537925 0.0546505 0.0555105 0.0563726 0.0577058 0.058604 0.0595041
0.0604061 0.0613098 0.062215 0.0640906 0.065969 0.0678502 0.069734 0.0716197 0.0735151 0.0754027
0.0772912 0.0791812 0.0810722 0.084868 0.0886628 0.0924622 0.096266 0.100084 0.107782 0.115482
0.123138 0.130758 0.138392 0.146041 0.153687 0.161332 0.168975 0.176616 0.184262 0.191905
0.199545 0.207185 0.214823 0.222464 0.230102 0.237739 0.245375 0.25301 0.260649 0.268284
0.275918 0.283552 0.291185 0.298821 0.306454 0.314086 0.321717 0.329348 0.336981 0.344612
0.352242 0.359871 0.3675 0.375131 0.38276 0.390388 0.398015 0.405641 0.41327 0.420897
0.428523 0.436148 0.443773 0.451399 0.459024 0.466648 0.474272 0.481894 0.489519 0.497142
0.504764 0.512385 0.520006 0.527628 0.535249 0.542869 0.550489 0.558108 0 0.00127141
0.0025432 0.00381552 0.00508843 0.00636195 0.0101413 0.0139322 0.0177223 0.0215089 0.0252994 0.025791
0.0262814 0.026771 0.0272596 0.0276899 0.0290786 0.0304621 0.0318405 0.0332137 0.0345844 0.0364255
0.0382571 0.0400718 0.0418825 0.0436881 0.0454992 0.0473079 0.0491179 0.0509366 0.0527667 0.054603
0.0564407 0.0582813 0.0601247 0.0619707 0.0656729 0.069389 0.073121 0.0768679 0.0806185 0.0843888
0.0881573 0.0919261 0.0956968 0.09947 0.106999 0.114528 0.122061 0.129609 0.137172 0.14475
0.152326 0.159903 0.16748 0.175056 0.182637 0.190214 0.197792 0.205369 0.212944 0.220523