# vtk DataFile Version 2.0
sampleSurface
ASCII
DATASET POLYDATA
POINTS 2021 float
-0.500032 0 0.11501 -0.499951 3.38813e-21 0.0392727 -0.789037 8.47033e-21 0.120673 -0.500013 -1.35525e-20
0.193965 1.00003 0 0.0485099 1.00003 0 0.0478584 0.475202 0 0.0353615
0.250044 1.41878e-20 0.0305359 0.2506 -5.42101e-20 0.117067 0.251301 0 0.203885 0.364989
0 0.203772 1.75002 0 0.113255 1.75002 0 0.0564279 2.50001 6.89146e-18
0.059229 2.21354 0 0.250758 2.50001 0 0.252875 3.25001 -3.47927e-17 0.0598775
3.25001 -1.69407e-21 0.253888 4.00001 5.60566e-18 0.0599857 4 0 0.253986 4.75
-1.79088e-17 0.0599988 4.75 8.47033e-22 0.253998 5.5 -2.79246e-17 0.0599999 5.5 -4.23516e-22
0.253999 6.25 1.01187e-17 0.06 6.25 0 0.254 7 2.93732e-17 0.06
7 0 0.254 7.75 -2.65294e-17 0.06 7.75 0 0.254 8.5
1.8923e-17 0.06 8.5 0 0.254 9.25 -2.88552e-17 0.06 9.25 -5.29396e-23
0.254 10 -2.64698e-23 0.254 10 0 0.06 -4.24997 0 0.0599042
-5 0 0.0599861 -5 0 0.253986 -4.24997 0 0.253912 -3.49995
0 0.0593815 -3.49994 0 0.253441 -2.74993 0 0.0570188 -2.74991 0
0.251316 -1.99991 0 0.0492276 -1.99987 0 0.242776 -1.24992 -1.69407e-21 0.03
-1.24985 1.23328e-17 0.222327 -1.24989 3.38813e-21 0.125756 -0.874924 2.08116e-17 0.03 -0.874929
0 0.122356 -0.124951 -8.47033e-22 0.03 -0.499941 0 0.03 -0.124922 -8.47033e-22
0.0385291 1.00021 0 0.231242 0.625368 0 0.203537 0.25004 -2.11758e-22 0.03
1.75003 0 0.247334 1.92873 1.69407e-21 0.441438 2.50001 0 0.447397 3.25
-1.69407e-21 0.447898 4 0 0.447986 4.75 0 0.447997 5.5 -4.23516e-22
0.447999 6.25 4.23516e-22 0.447999 7 0 0.448 7.75 -1.05879e-22 0.448
8.5 0 0.448 9.25 0 0.448 10 -2.64698e-23 0.448 -5
-8.47033e-22 0.447985 -4.24997 0 0.447919 -3.49993 0 0.4475 -2.74988 0
0.445609 -1.9998 6.77626e-21 0.437758 -1.24969 1.61411e-17 0.417681 -1.24976 -6.77626e-21 0.31973
-0.875161 7.70461e-18 0.216228 -0.875403 0 0.312476 -0.499924 -8.74138e-19 0.250039 -0.312433
0 0.250037 -0.312436 0 0.200025 -0.499924 0 0.200026 0.250062 3.38813e-21
0.24921 0.250039 -1.69407e-21 0.250046 0.250032 0 0.300069 0.437526 3.05948e-18 0.300066
0.625026 0 0.30005 1.00072 -8.23994e-18 0.326497 1.00196 0 0.423 1.75013
0 0.439575 1.75013 1.77877e-20 0.448245 1.00135 0 0.537141 1.00002 0
0.61834 1.74999 2.71051e-20 0.633055 2.49999 -3.38813e-21 0.641448 3.25 0 0.641907
4 -1.69407e-21 0.641985 4.75 -8.47033e-22 0.641996 5.5 -4.23516e-22 0.641998 6.25
0 0.641999 7 0 0.641999 7.75 0 0.642 8.5 5.29396e-23
0.642 9.25 -5.29396e-23 0.642 10 0 0.642 -5 0 0.641985
-4.24997 -1.69407e-21 0.641926 -3.49993 0 0.641557 -2.74988 0 0.639897 -1.99989
6.77626e-21 0.63382 -1.25099 2.55465e-18 0.614606 -1.25 -2.71051e-20 0.515981 -0.878244 0
0.50789 -0.875961 2.71051e-20 0.459694 -0.875609 0 0.410432 -0.498432 0 0.400603
-0.498071 -1.70762e-18 0.413126 -0.450805 0 0.413349 -0.45095 0 0.400955 0.250009
1.89735e-19 0.412703 0.25 2.71051e-20 0.425212 0.296872 1.00289e-18 0.425187 0.343754 -2.71051e-20
0.425153 0.343763 0 0.400146 0.250006 0 0.400175 1.00162 1.41488e-17 0.520353
-2 4.23516e-22 0.820145 -2.09502 -2.11758e-22 0.830091 -2 0 0.829497 -1.25123
0 0.813251 -1.25126 0 0.713737 -1.25101 6.77626e-21 0.62198 1.00059 0
0.714169 1.00094 0 0.809205 1.75018 0 0.82775 2.5 0 0.835521
3.25 0 0.835917 4 -1.69407e-21 0.835986 4.75 -8.47033e-22 0.835996 5.5
0 0.835998 6.25 0 0.835999 7 0 0.835999 7.75 0
0.836 8.5 0 0.836 9.25 0 0.836 10 0 0.836
-5 -8.47033e-22 0.835986 -4.24997 0 0.835935 -3.49995 0 0.835616 -2.74991
0 0.83419 -0.970118 0 0.703382 -0.87455 0 0.699864 -0.874264 -2.71051e-20
0.649852 -0.874033 -2.71051e-20 0.599873 -0.49698 0 0.599585 -0.497345 -9.21572e-19 0.612046
-0.450014 0 0.611892 -0.44938 2.71051e-20 0.599454 -2.00002 0 0.84097 -1.84639
-3.38813e-21 1.02215 -1.25185 0 1.01276 -0.896512 -3.38813e-21 0.900668 -0.908183 6.77626e-21
0.801076 -0.904022 -1.86347e-20 1.00093 0.624925 0 0.799916 0.249931 0 0.799891
0.249978 0 0.899916 0.249997 0 0.999939 0.999987 0 0.999957 1.75061
-2.1684e-19 1.02409 2.50003 0 1.0296 3.25 -1.69407e-21 1.02993 4 0
1.02999 4.75 0 1.03 5.5 0 1.03 6.25 2.11758e-22 1.03
7 0 1.03 7.75 0 1.03 8.5 5.29396e-23 1.03 9.25
0 1.03 10 0 1.03 -5 0 1.02999 -4.24998 0
1.02994 -3.49996 -8.47033e-22 1.02968 -2.74996 0 1.02849 -2.00026 0 1.02458
-0.87482 0 0.799893 -0.87491 0 0.899919 -0.49993 0 0.799862 -0.499958
7.6233e-19 0.849889 -0.312476 0 0.849885 -0.312472 0 0.799853 -1.25001 8.04681e-21
1.19601 -0.499979 5.29396e-23 1.10737 -0.731886 2.11758e-22 1.19997 -0.499981 0 1.19997
-0.124987 0 0.999933 -0.477759 -5.29396e-23 0.999933 -0.487556 -1.45584e-22 1.09995 0.250008
0 1.19997 1 0 1.19997 1.7507 0 1.22203 2.50003 -1.35525e-20
1.22368 3.25 0 1.22394 4 0 1.22399 4.75 4.23516e-22 1.224
5.5 0 1.224 6.25 2.11758e-22 1.224 7 0 1.224 7.75
1.05879e-22 1.224 8.5 0 1.224 9.25 0 1.224 10 2.64698e-23
1.224 -5 4.23516e-22 1.22399 -4.24999 -4.23516e-22 1.22395 -3.49998 0 1.22374
-2.75001 0 1.22279 -2.00077 0 1.21965 -1.24997 4.23516e-22 1.19997 -0.499969
-5.29396e-23 0.999933 -0.874942 0 0.999936 -0.499979 -1.32349e-23 1.09995 -2.75001 0
1.36967 -3.18711 4.23516e-22 1.41751 -2.75001 4.23516e-22 1.4171 -2.00072 3.38813e-21 1.29692
-2.00065 0 1.41474 -1.25823 6.35275e-21 1.40014 -0.980416 0 1.39998 -0.499986
0 1.39998 0.250009 0 1.39998 1 0 1.39998 1.75054 0
1.41682 2.50002 -1.35525e-20 1.41776 3.25 0 1.41796 4 4.23516e-22 1.41799
4.75 0 1.418 5.5 0 1.418 6.25 0 1.418 7
0 1.418 7.75 0 1.418 8.5 0 1.418 9.25 0
1.418 10 0 1.418 -5 0 1.41799 -4.24999 0 1.41797
-3.49999 -4.23516e-22 1.41781 -1.24998 0 1.39998 -2.80392 1.32349e-23 1.61143 -2.75
-1.32349e-23 1.6114 -2.0003 0 1.60983 -1.25396 2.64698e-23 1.60004 -1.12789 2.64698e-23
1.59999 -0.49999 1.05879e-22 1.59999 0.250008 0 1.59999 1.00001 4.23516e-22 1.59999
1.75038 0 1.61122 2.50002 0 1.61184 3.25 -4.23516e-22 1.61197 4
-4.23516e-22 1.61199 4.75 0 1.612 5.5 0 1.612 6.25 0
1.612 7 0 1.612 7.75 5.29396e-23 1.612 8.5 2.64698e-23 1.612
9.25 -1.32349e-23 1.612 10 -1.32349e-23 1.612 -5 0 1.61199 -4.24999
0 1.61198 -3.49999 0 1.61187 -1.24999 0 1.59999 -2.75 -1.32349e-23
1.63714 -2.64195 -2.11758e-22 1.80559 -2.00012 -8.47033e-22 1.80492 -1.25741 0 1.80004
-1.19082 -7.94093e-23 1.8 -0.499992 1.05879e-22 1.79999 0.250006 2.11758e-22 1.79999 1
0 1.8 1.75023 0 1.80561 2.50001 3.38813e-21 1.80592 3.25 0
1.80599 4 0 1.806 4.75 2.11758e-22 1.806 5.5 0 1.806
6.25 0 1.806 7 0 1.806 7.75 0 1.806 8.5
2.64698e-23 1.806 9.25 0 1.806 10 0 1.806 -5 0
1.806 -4.25 -2.11758e-22 1.80599 -3.49999 0 1.80594 -2.75 -1.05879e-22 1.8057
-1.24999 0 1.8 -2 -4.76456e-22 1.98532 -1.20969 -1.65436e-23 2 -0.499993
0 2 0.250006 0 2 1 0 2 1.75 0
2 2.5 0 2 3.25 0 2 4 0 2
4.75 -1.05879e-22 2 5.5 0 2 6.25 0 2 7
5.29396e-23 2 7.75 0 2 8.5 0 2 9.25 0
2 10 -1.32349e-23 2 -5 2.21817e-18 2 -4.25 1.05879e-22 2
-3.49999 0 2 -2.74999 0 2 -1.99999 -5.29396e-23 2 -1.24999
3.30872e-24 2 0.0956945 -5.42101e-20 0.203879 0.0632748 0 0.203876 0.0625511 0
0.250042 -0.403589 6.77626e-21 0.40138 -0.405779 7.7927e-19 0.38799 -0.406379 -6.77626e-21 0.375196
-0.499567 -1.35525e-20 0.375265 0.250006 -6.50521e-19 0.375144 0.156247 0 0.375155 0.156237
9.41901e-19 0.400212 0.203129 0 0.400201 0.249796 0 0.59991 0.249852 -1.0842e-19
0.587433 0.202953 0 0.587417 0.202888 6.50521e-19 0.599901 0.625121 -6.77626e-21 0.499953
0.717439 6.77626e-21 0.504955 0.625095 6.77626e-21 0.475379 0.343596 1.0842e-19 0.599918 0.343639
0 0.574939 0.296781 0 0.574964 0.249926 0 0.574977 0.62499 -4.2826e-18
0.549927 0.624917 4.55365e-18 0.599925 0.203133 0 0.412725 -0.449046 0 0.587135
-0.496581 5.42101e-20 0.587161 0.625036 -9.32414e-18 0.40006 0.625067 1.13164e-18 0.450032 0.249704
0 0.624881 0.155871 0 0.599866 0.155839 1.95156e-18 0.624853 0.249886 1.35525e-20
0.749873 0.062411 0 0.749846 0.0624478 -4.26227e-18 0.799869 -0.312472 0 0.749804
-0.499901 -3.38813e-21 0.749824 -0.691227 0 0.30453 -0.499912 3.02221e-18 0.300065 -0.875784
-3.11708e-18 0.361353 -0.592465 -2.71051e-20 0.40036 -0.499854 0 0.350135 -0.687111 1.35525e-20
0.350117 -0.68656 -2.71051e-20 0.40021 0.437526 -1.35525e-20 0.400108 0.437522 6.77626e-21 0.350086
0.250015 -2.51399e-18 0.35011 0.625027 3.38813e-21 0.350064 -0.592287 0 0.425286 -0.498048
0 0.425444 -0.873902 5.42101e-18 0.54992 -0.496663 0 0.574746 -0.591532 0
0.574798 -0.591729 0 0.599734 -0.149108 0 0.406489 -0.149477 -5.29396e-23 0.403592
-0.149678 0 0.406489 -0.451876 -2.1684e-18 0.499977 -0.451579 0 0.487563 -0.498366
0 0.487552 -0.498515 -1.0842e-19 0.499993 0.437553 0 0.450075 0.437532 -6.07153e-18
0.425113 0.254621 -1.25361e-19 0.496697 0.26485 -5.42101e-20 0.498023 0.264831 0 0.496529
0.254636 -2.30393e-19 0.49668 0.570241 0 0.499932 0.437665 -2.71051e-20 0.474991 0.437859
-2.71051e-20 0.49988 0.437372 -1.0842e-19 0.599915 0.249722 3.25261e-19 0.649874 0.43732 -5.42101e-20
0.649899 0.624872 0 0.649914 0.624883 -3.95734e-18 0.699913 0.43734 6.83047e-18 0.699894
0.249817 0 0.699869 -0.592227 0 0.624743 -0.498071 -2.71051e-20 0.624658 -0.499769
6.77626e-21 0.69979 -0.687025 0 0.699824 -0.150854 -1.03677e-18 0.599678 -0.151059 -6.77626e-21
0.605522 -0.127339 6.77626e-21 0.605681 -0.127867 0 0.599582 -0.406139 -4.40457e-20 0.699754
-0.406113 0 0.674749 -0.499634 0 0.674774 -0.18433 -4.23516e-22 0.674527 -0.163626
-4.23516e-22 0.678958 -0.165125 0 0.674537 -0.171868 4.23516e-22 0.674524 -0.14924 3.34737e-19
0.400169 -0.125737 0 0.400165 -0.12551 0 0.393854 -0.149076 -2.11758e-22 0.393877
-0.499925 -2.61564e-18 0.325088 -0.406241 0 0.325087 -0.4062 0 0.300069 -0.124901
0 0.300062 -0.218633 -3.27294e-18 0.299673 -0.218596 1.35525e-20 0.324664 -0.124851 0
0.325085 -0.126061 7.86047e-19 0.406473 -0.0785222 1.30782e-18 0.400166 -0.126118 3.38813e-21 0.41275
-0.0785648 0 0.412729 0.240678 1.0842e-18 0.500153 0.252614 -2.1684e-19 0.498317 0.252386
1.0842e-19 0.496231 0.241035 0 0.496114 0.228892 -1.35525e-20 0.496204 0.228835 6.77626e-21
0.498715 0.229819 2.71051e-20 0.500074 0.25248 0 0.499935 0.240657 -1.6263e-19 0.500957
0.264863 0 0.500154 0.264689 0 0.500951 0.437443 0 0.549896 0.437406
[...]
POINT_DATA 2021
FIELD attributes 2
p 1 2021 float
4.58443 3.88421 3.8682 7.37623 -1.50315 -1.5042 -3.68674 -4.62981 -5.71332 -6.65029 -5.35584
-0.134351 -0.189846 0.110848 0.150122 0.245009 0.176164 0.266159 0.171458 0.228959 0.143947
0.179022 0.110373 0.130088 0.0782562 0.0875579 0.0506633 0.0530799 0.0293211 0.0273429 0.0137826
0.00851163 0.00766001 0.00169601 0 0 1.17962 1.17417 1.17415 1.17952 1.20708
1.20624 1.29695 1.29311 1.57408 1.564 2.55573 2.67653 2.71282 3.4193 3.65518
-0.905403 3.79841 -0.914392 -1.20818 -2.39449 -4.62308 -0.00343028 0.240094 0.394703 0.368807
0.296351 0.222462 0.157389 0.10399 0.0623099 0.0318772 0.00922989 0.00141855 0 1.17401
1.17918 1.20404 1.28316 1.53247 2.79607 2.96829 4.28382 5.19485 11.0221 3.17146
4.32406 7.62445 -8.2475 -8.27697 -6.6428 -2.03828 -1.294 -0.789366 -0.130621 0.191752
0.18778 0.16342 0.0255463 0.102944 0.316514 0.312785 0.259866 0.199968 0.144504 0.0974455
0.0597546 0.0315931 0.010251 0.00190591 0 1.17367 1.17838 1.20034 1.26836 1.48006
2.61343 2.95676 6.11233 6.70861 6.02606 37.0521 41.8552 58.9383 52.5907 0.0481043
-0.223225 -0.504424 0.205396 -0.0400842 -0.51497 0.191203 1.41452 1.39087 1.41123 2.102
2.55138 2.60884 -0.652189 -1.03322 -0.177817 0.0853506 0.155754 0.161036 0.14098 0.11197
0.0820045 0.0549493 0.0328971 0.0154152 0.00608698 0 1.17315 1.17722 1.19567 1.25058
4.0363 4.5412 5.60167 5.64046 36.7872 35.7603 49.1371 55.7643 1.40665 1.38153
1.56741 2.35017 3.2501 1.77918 -1.96961 -5.64665 -3.83586 -2.0408 -1.09671 -0.346281
-0.0489629 0.0704848 0.11292 0.118115 0.105413 0.085453 0.0641345 0.044817 0.0285818 0.0170253
0 1.17254 1.17589 1.19053 1.23123 1.3334 3.36168 2.37888 6.26645 4.21262
2.36991 2.29761 1.27458 0.835252 0.869763 0.691394 -0.564335 1.33608 0.811853 -0.728262
-0.889728 -0.359658 -0.078671 0.047743 0.0985436 0.110314 0.102031 0.0847622 0.0649889 0.0463752
0.0305626 0.0178885 0 1.1719 1.17455 1.18538 1.21166 1.25893 1.26824 1.45573
1.79687 0.846783 1.19831 1.18627 1.194 1.23504 1.19861 1.11274 0.911533 0.554641
-0.411842 -0.713468 -0.352209 -0.0979912 0.0266981 0.0803358 0.0952945 0.0897355 0.0746288 0.0565708
0.0392575 0.0245481 0.0122673 0 1.17134 1.17334 1.18074 1.11178 1.18032 1.18057
1.15721 1.02264 0.93963 0.516438 -0.291872 -0.598361 -0.338588 -0.105383 0.0168077 0.0719189
0.0887828 0.0850162 0.0714313 0.0546061 0.0382098 0.0241734 0.0120783 0 1.17091 1.17243
1.17713 1.02192 1.17948 1.16673 1.13355 0.976085 0.936811 0.49666 -0.230397 -0.536787
-0.328125 -0.107333 0.0125851 0.0678142 0.0853292 0.0823409 0.0694779 0.0532671 0.0373262 0.0235952
0.0115683 0 1.17065 1.17187 1.17481 1.17232 0.974511 1.12618 0.934102 0.49072
-0.211684 -0.518189 -0.324948 -0.107687 0.0113436 0.0664259 0.0840657 0.0813042 0.0686754 0.0526817
0.0369082 0.0232984 0.0113166 0.00184712 1.17056 1.17168 1.17399 1.16946 1.12558 0.95928
-9.17393 -9.69856 -12.8644 81.4872 77.5996 60.7435 35.8068 -2.6782 -4.26817 -1.12677
-0.50882 2.29427 3.12859 5.94666 4.15864 0.636331 0.527392 0.81445 0.777614 0.4119
-0.952634 0.524034 0.975697 0.879306 0.662287 61.547 42.5344 0.755057 0.997262 0.0824675
3.77373 -0.845853 -7.24583 -11.8505 -8.63451 0.250398 9.74006 8.18563 15.6112 6.17763
17.9421 26.3165 10.2301 11.8916 0.621473 -0.714896 -4.31 -0.0134069 20.0635 41.2879
6.52769 42.056 20.2367 18.5553 -83.1029 -83.4345 -83.4303 72.6812 73.3238 50.2614
46.7146 1.19523 0.976095 -5.28799 -1.90215 -2.14004 -5.35595 0.683326 1.1516 0.793802
1.23023 -2.39148 -0.255067 0.141785 -1.1014 -1.68208 -5.44943 16.4418 30.1345 14.4296
7.40154 -84.2609 -78.4282 -52.6898 -50.7573 17.1923 24.1446 20.6622 -49.1909 -46.2236
-48.541 -49.5623 -83.4395 -65.6392 -69.3345 -84.5516 21.9622 25.3003 19.1675 -30.9853
-24.1818 -43.6654 -45.5229 -69.8545 -37.2075 -67.801 -37.7923 15.4419 7.9095 17.7619
18.7917 11.3817 10.7467 10.5055 7.19808 14.7862 -1.3588 -1.6251 0.893483 1.36649
0.728837 0.585464 49.9802 72.3267 -53.6923 -82.3444 6.53324 12.3589 -26.6302 -29.4386
-52.9505 -0.274347 4.87301 -1.35288 0.356345 -30.5966 -42.47 -48.164 -28.3806 71.736
68.4834 46.711 45.063 -38.5096 -66.6946 -16.6597 -15.3614 -7.05248 -30.0996 -60.1051
45.0953 47.175 69.7017 71.6318 -32.4335 -27.1733 -26.8901 -4.23734 -10.7874 -15.496
-14.4916 -21.7016 -24.08 -49.7899 46.6119 22.1052 22.325 12.9334 13.5244 13.1622
14.2206 22.1052 46.2549 11.3065 13.0294 12.6405 14.0691 -76.5926 -75.3303 -64.5139
-64.4741 -72.3832 -67.3848 -65.3382 49.6518 73.5992 -74.1447 -65.9227 -65.6887 -73.4855
-21.8254 -22.7547 -19.8593 -10.0381 -3.6392 -7.93484 -39.6613 -39.2092 -64.1334 -6.98145
0.218917 -1.21638 -8.0789 -59.3123 -50.2696 -37.5758 -6.39402 -5.07139 -2.50392 0.922944
-2.94715 -0.480178 -6.41877 -16.0111 -15.1523 -12.639 -41.5377 -51.4382 -39.3396 0.445817
-7.28434 -6.54626 0.217607 -59.2855 -38.7769 -55.004 1.51328 -2.36693 -6.00339 -5.63845
72.2735 49.2409 -128.522 -122.947 -87.5343 -85.2266 -86.4034 -121.107 -72.3944 -38.7882
-76.6861 -74.9398 -79.4822 -78.5432 -36.725 -80.9818 -93.8057 -98.9849 -112.364 -113.056
-60.1713 -71.0403 -80.3147 -71.0219 -21.1683 -62.245 -68.9993 -56.4204 -14.3348 -64.6156
-70.1686 -82.2596 -53.7446 -55.9503 -69.1043 -63.5811 -58.7376 5.26703 4.56467 6.58914
-46.337 -50.4397 -50.6626 -45.2342 -45.5039 -62.2174 -54.7299 -76.8605 -76.9881 -14.9608
-15.1524 -22.5656 -22.9385 6.54571 8.12636 5.48921 -62.5057 -57.4562 -52.6301 -4.74833
-5.8737 -10.2303 -11.0693 -5.89283 -16.586 -21.2019 -20.9549 -16.4125 -63.3334 -63.865
-57.8823 -59.8889 -78.2938 -63.1258 -15.3338 -16.5913 -19.1371 -15.6139 -51.1323 -58.1603
-69.081 -66.1641 -63.3999 110.178 110.539 137.849 138.476 -64.4765 -84.1472 -73.7647
-56.5372 -70.5075 0.101142 -2.40664 -4.02102 -1.18943 -0.683099 3.17856 6.63777 3.28776
3.0976 -10.2856 -15.5659 -7.80353 -5.63252 -6.8079 -9.58858 -12.1069 -11.8866 38.9786
51.3539 59.7199 42.2142 24.8172 15.549 38.4511 32.264 1.84341 1.97427 2.70058
50.3548 37.1746 35.7075 43.6993 -8.25049 -11.7774 -6.97566 -4.23654 4.29068 7.10866
8.21908 6.05566 -6.41305 -5.09221 1.64532 -5.59953 13.8665 9.35506 11.1229 -67.9854
-52.8521 -52.8758 -68.1743 -77.2706 -77.0218 -78.0386 -54.4067 -11.548 -15.9959 -30.3913
-70.9421 -67.7802 -83.8956 -84.7242 -78.2119 -82.1613 -100.213 -89.3568 -38.5977 -23.4031
-25.511 -30.3643 -8.89985 -11.6583 -29.2231 0.11375 -0.297071 -0.866916 -1.07967 0.638137
0.283062 -52.3491 -67.0206 -71.8244 -72.8161 87.9184 100.589 96.8113 117.949 111.561
98.0175 99.3817 180.553 175.574 156.471 131.682 108.498 115.851 106.913 124.796
-16.6538 -27.6629 -26.0366 -10.3213 -28.4879 -68.314 -40.1365 -11.5147 88.1152 98.4
90.3853 80.0973 104.796 94.2706 109.427 149.63 171.201 183.682 180.074 118.364
113.191 167.011 -18.5351 -6.2877 -15.3209 -23.4693 -29.7172 157.126 156.973 125.526
118.625 122.854 128.428 156.03 155.566 120.761 192.024 194.979 191.382 194.98
215.827 245.028 237.894 215.532 213.971 -18.4494 -26.8915 -18.2449 -47.8365 -36.8444
-24.9017 -24.3242 -23.2943 -13.997 0.736287 -2.34944 -3.01393 215.803 221.841 253.178
213.506 242.608 252.244 222.242 186.967 194.239 192.114 182.701 182.056 157.397
183.182 186.612 170.243 -38.0481 -17.8709 -19.6211 -65.6427 -53.2031 -46.6006 -18.7288
-27.2887 -17.1901 -15.649 -25.4275 -25.7547 2.14429 -1.75974 -10.7052 -9.4812 -18.1474
-25.5316 -17.2612 -16.7401 -25.1552 -9.74087 -9.78366 -9.34809 123.215 156.911 153.667
155.267 123.948 119.251 182.389 181.773 184.121 183.042 151.395 120.168 125.681
152.067 -68.1408 -71.5319 -107.412 -100.37 -72.6507 -22.4662 97.4106 97.8567 95.2452
-5.45612 1.21936 -1.43091 -16.2523 53.0049 53.0511 57.5602 68.166 -111.337 -126.678
-122.714 -112.077 -119.88 -120.942 -122.644 -112.436 -63.5752 -57.2323 -56.1601 -66.2845
-163.198 -109.182 -88.7021 -93.4592 -95.7225 -94.8485 -94.7932 -77.0028 -77.9499 -78.9519
-33.9865 -49.0317 -74.907 -78.2444 -73.9103 -77.0328 -78.1896 -69.5145 -62.165 -61.1215
-68.0515 -61.3406 -63.8357 -59.2171 1.951 0.659428 7.10808 10.6071 6.34577 -35.5888
-34.8895 -29.5202 -28.8887 431.265 471.781 476.63 489.619 16.3232 17.3684 27.8354
16.1769 14.188 16.6072 17.2401 17.0529 13.9124 12.6598 14.4322 16.8869 24.9909
26.6066 7.01711 10.7861 8.8116 10.5994 17.3993 15.0248 12.5159 10.5378 -32.1194
-28.5392 -34.6887 -38.4854 -27.0199 -25.3633 7.31169 10.5039 11.6743 294.323 -71.5881
-63.4569 330.974 490.598 -1.28278 -2.73009 -2.70272 -6.16789 -15.6225 -51.5406 -39.4528
-1.25143 11.022 17.5008 -26.8568 -24.7434 127.205 128.211 116.151 114.309 86.5146
104.063 106.439 95.8153 210.489 212.585 210.799 206.099 -83.5148 -81.9729 -85.246
-87.2713 196.025 200.25 210.886 206.631 216.202 233.733 196.613 191.144 187.086
164.111 -3.40143 -0.0447748 -1.38816 2.64241 1.68955 3.47734 -5.54265 -4.39898 -3.66539
-5.08944 -6.83683 -7.17953 4.32436 -4.29569 -5.09008 -7.11046 -13.202 0.293376 -1.83213
-21.0111 -13.6715 -6.04267 1.2432 -1.23614 1.69643 -6.8931 1.68958 3.76324 -4.37532
-2.80035 -4.70862 -0.668232 2.34499 0.639949 -4.10914 -3.14519 -14.4197 -10.383 -22.3604
-17.3674 -111.134 -84.7657 -83.4495 -90.173 -5.13704 -3.92524 0.64399 0.594624 0.215908
0.389444 -5.15232 -31.8075 -56.4807 -67.4461 -43.8138 -21.7857 -83.7869 16.9218 15.8262
16.0067 -39.6343 -26.3178 10.3587 23.1448 15.3723 39.9836 26.9053 9.93454 -19.3521
-5.28555 -1.39033 4.11226 -1.67691 10.9796 -34.0252 -50.0329 -57.8862 -12.1234 -43.2567
-26.741 -60.1526 -81.4068 86.0504 91.8996 97.6094 87.4516 96.3466 85.2146 207.936
206.634 210.594 213.278 198.987 219.409 219.407 209.41 -71.2318 -73.4955 183.424
-84.1473 -84.6874 -113.73 -112.82 -118.687 -55.3189 -97.4181 -87.6606 -86.2585 -87.146
-103.113 -85.0476 -80.9072 -80.7075 -79.7787 -68.5846 -42.6217 -74.3071 -77.8459 -76.1469
-74.7284 -77.6902 -101.655 -105.634 -82.7141 -113.059 4.65206 4.36715 6.39417 4.40923
8.18983 7.81024 8.84488 6.2517 7.75206 -42.4992 -40.9107 -53.9698 -76.7904 -107.753
-107.256 -101.93 -78.7651 -44.2775 -30.0824 -33.5758 -41.4131 4.95222 6.49 -3.91401
-6.81593 -7.4666 3.06073 1.03824 -8.13052 6.14883 14.9213 11.1066 11.7538 4.06698
4.60355 4.38591 6.67873 5.43419 -41.7294 -44.5757 -213.003 -220.783 -239.783 -241.732
-202.886 97.2067 48.9095 48.8995 73.6371 -80.1588 -77.7786 -73.4098 -71.7852 -66.0034
-68.1579 -72.7547 -72.1493 -88.5499 -139.701 -154.151 -166.02 -77.5206 -89.5782 -105.834
-77.4356 -93.6149 109.947 104.46 128.236 135.331 -78.4436 -67.075 -78.1574 -83.3318
-85.7834 159.434 186.273 164.31 -267.942 -307.136 -296.784 -254.079 -227.492 -228.485
-230.195 -268.278 9.46941 11.2364 5.75187 4.7556 1.67333 5.51046 6.37926 5.34981
7.31961 75.6932 80.5415 -39.0912 52.92 76.5547 68.8887 94.7007 85.3983 32.0352
27.7498 70.4289 59.0946 13.4992 14.8371 -1.45363 1.67993 2.88079 11.0573 6.69436
6.12879 7.03662 12.606 -126.55 -118.286 -81.6319 -93.2411 -24.6834 -27.8752 -28.0386
-14.1303 -4.82266 -5.69105 -3.3936 -5.0342 -82.2062 -96.8459 -89.8399 123.07 113.987
193.861 192.414 185.177 187.755 204.119 199.492 -58.5452 -62.1881 -64.8426 -81.4001
-82.1932 425.921 320.189 73.7243 121.671 -4.09036 -46.2028 -120.396 -120.108 -120.02
-56.4313 -58.1224 -58.0029 -63.3594 -58.8719 -60.2591 -126.043 -118.766 -79.5449 -69.1345
-80.6981 -79.4981 -81.2621 -82.3648 -119.216 -56.063 -53.2581 -58.1037 4.5714 5.37681
5.14708 4.60915 7.07152 6.77432 -21.2144 -21.6367 -17.2259 -15.8863 -24.2785 -24.8333
-30.8736 -30.5716 -35.946 -35.9622 -29.127 -93.155 -89.1936 -50.162 -35.3918 -62.2297
-26.1512 -22.4303 -10.8371 -12.9378 -12.6547 -19.6559 4.46298 -10.3864 -6.00953 14.724
14.9292 15.8434 16.7899 15.0702 15.7219 -20.2087 15.8249 15.2587 19.2153 24.7981
26.4294 29.0144 26.5174 -26.6517 -28.9454 -21.961 -39.0364 -11.685 -13.3882 -6.67539
-13.6217 -12.53 -18.741 -22.8654 -21.3307 -17.4877 -21.26 -31.3345 -36.52 139.96
14.5772 -17.0169 -15.8991 116.536 106.238 110.006 106.584 107.009 87.6783 75.7656
192.628 206.293 183.117 -85.9133 -88.1739 -4.63664 -4.59554 -3.91371 -15.8211 -15.6505
176.689 192.445 179.595 165.607 136.047 137.503 -5.33164 -5.02138 -5.53569 -8.98145
-10.3075 -6.25278 -12.0114 -7.85156 -9.0446 -7.56771 -12.9303 -0.994954 88.9335 64.1107
66.2728 21.3505 21.4296 73.9473 121.426 15.8133 2.39116 -21.2515 -20.4281 -0.698617
-0.365915 -0.0481331 -0.586834 -1.02417 31.6204 23.0097 2.84792 27.1496 -29.6629 -12.8838
-1.68978 -2.34684 72.2531 117.854 -110.917 -72.1128 25.2443 81.0893 84.6427 61.6073
41.9007 65.4878 66.1952 91.384 94.5209 113.414 -74.3141 77.3064 74.2501 64.0353
16.6739 14.0541 11.9563 -86.5085 -102.306 -102.369 -102.488 -92.8606 -95.0796 -87.1453
-87.5044 -78.4736 -82.6192 38.8722 -28.7983 -6.60654 -0.247169 -1.02476 -21.5566 -22.0799
-30.0815 -238.054 48.6012 -32.6315 -19.5092 -20.0288 -50.2044 -50.544 -42.0583 0.0882751
0.98082 -8.44623 -50.7988 43.0829 63.7102 -39.056 -23.4851 35.6287 33.4844 5.31806
-1.31672 -0.504347 6.92956 1.09642 -188.547 -175.928 -111.269 -115.149 -72.2601 -79.1622
-81.2079 -119.138 -113.78 -108.769 -118.489 -117.664 -125.814 -114.644 -119.284 -12.2112
-81.1964 -85.852 -105.663 105.55 110.406 132.24 142.883 167.938 157.612 153.117
143.048 211.357 -79.7501 -70.6743 -36.03 -3.98589 -5.0403 -3.5416 -236.737 -234.283
-217.222 -189.804 -113.447 154.127 -247.762 -260.892 -116.999 -124.787 17.0826 11.6021
-124.888 -139.326 -146.279 -144.002 -142.146 -84.6179 -78.5423 -84.6643 5.4945 11.1664
-59.7306 -1.91037 -2.84253 11.0334 12.4161 9.11358 8.9915 9.95237 8.74259 9.07386
12.5219 11.1643 12.398 21.6194 17.9112 16.7078 19.2755 15.31 16.7717 3.47785
12.08 -78.7832 -20.1788 6.49525 -7.68012 19.9896 4.48744 16.557 19.8595 20.875
19.7074 10.0052 -10.478 -10.626 -30.5841 -38.1863 -49.6255 -50.0616 -20.9145 -29.2577
-23.578 3.32701 13.5829 16.7398 -0.942991 -20.5741 -30.059 -29.4832 -17.5647 -4.89907
-1.76003 0.245471 0.340543 -20.4244 -47.1347 -20.8147 -44.8165 -21.9118 -46.9207 -30.9516
12.0067 8.36413 13.6226 -8.55921 0.622791 0.6952 -1.09753 -1.6229 0.348614 4.54741
3.57602 2.21183 -4.5909 7.40973 9.61248 8.84673 -34.4147 -47.0548 -49.8017 -7.75538
1.44826 7.51185 -15.5104 -71.0656 -82.5989 -28.3662 -5.33541 -14.6581 -41.1548 -20.5348
-85.9478 -80.1918 -80.8859 6.84059 -51.5357 -40.6196 -40.5544 -16.2651 -3.6967 -7.72115
3.5075 5.06212 -51.8021 -50.1679 -44.5405 -40.516 -76.9464 -75.97 -71.0578 -72.1522
-126.407 -146.719 -117.625 -133.99 -240.149 -228.698 -188.375 -186.717 -236.203 -168.17
8.95389 8.77481 7.76644 -137.114 -126.653 -111.559 -12.3392 -23.5245 -10.5845 -12.5654
-103.804 -126.432 -140.904 120.397 133.969 -72.5881 -85.8365 4.40086 2.68051 -3.1384
-11.7191 15.2578 26.7079 -1.77109 -1.40771 -2.08456 -0.16515 -130.289 -89.9422 -84.726
-113.779 0.934639 12.7214 0.670913 7.79292 4.15945 13.4836 9.6375 10.0069 7.79909
5.76845 10.9046 9.50828 -7.74387 -0.658978 -1.01468 -96.0478 -214.358 -194.27 49.3499
26.75 55.9553 19.6914 28.5522 -24.6028 -19.2965 -16.9043 -23.1753 -3.63443 -3.84704
-1.76114 -4.2224 -4.05138 -4.29932 -5.93085 80.9723 92.1812 84.0115 -84.8034 -115.375
-111.628 -102.96 -109.655 -109.395 -114.263 199.306 156.368 195.073 191.021 -0.328236
-2.58756 5.28603 5.19077 0.493094 3.56119 -0.709903 1.23843 -1.477 -4.19883 -19.7333
-1.95085 -0.665597 -0.406053 2.61142 2.46703 15.8849 1.1657 -76.4098 16.4343 31.2011
11.435 20.9132 17.6746 6.98802 -62.1359 -78.0345 -57.9393 -32.1308 -55.5228 -77.7084
-3.62664 -23.4999 -96.4958 -108.512 0.182904 3.12236 -29.9535 -40.7379 -109.115 278.888
4.50883 -2.20178 -5.64035 -8.76736 -3.54009 -4.15857 -4.18122 -3.26234 -3.10098 -2.322
-12.3735 -2.25798 -3.86168 -19.8925 -6.28322 -9.57345 -1.66991 -2.007 -3.1449 71.43
37.9534 79.7004 88.1644 -9.98017 -10.5063 -13.9632 -107.772 -9.91049 -8.82576 -9.0421
-33.0196 -39.3695 -18.2068 -7.51898 -5.63876 -5.43749 0.105157 -7.81349 -1.7963 -10.5048
49.0303 -142.537 -117.548 -120.572 -118.104 -118.017 13.9667 15.7192 -89.3656 -88.7189
-88.7823 -46.4026 10.9024 -19.9856 -0.05253 10.0976 -6.2113 -7.55627 -17.3981 -21.5753
-66.7161 -42.7271 -49.374 -76.88 -54.9889 -80.9366 -20.2679 -79.5905 -88.5008 -33.6763
-1.35725 -0.0425656 0.97823 -1.09101 11.1445 -9.94487 -1.95785 -20.5862 -15.9048 -2.89331
-24.4386 -6.65141 -8.34386 -34.305 -0.640104 -12.6724 -2.92697 -11.9913 -9.48939 -3.28099
-4.28303 -3.7729 -3.21383 -13.7625 -6.54868 -1.70453 -8.76885 -7.65349 -1.4647 7.03653
16.8177 -5.04514 -15.0846 -14.9698 -12.481 184.307 197.759 192.697 196.067 185.475
180.979 185.505 206.045 208.157 69.3063 71.5584 60.1522 -95.8846 -23.9077 -21.8507
-21.1654 -15.907 -14.6991 -41.155 -87.3573 -75.9081 -19.7851 98.9481 142.022 159.722
154.656 118.841 -66.1363 -63.5146 -70.1115 -65.1833 -73.9087 -64.3801 -86.7355 -86.7746
-86.9741 -5.44683 -3.91435 205.521 -11.0302 227.567 218.929 230.593 -36.2187 -30.8787
186.375 157.293 183.62 -4.80361 -108.251 75.8621 -132.06 -130.418 -123.216 -127.608
-21.8757 204.65 -4.22658 203.136 221.014 220.058 3.70038 -62.1068 78.8664 81.3563
-108.101 8.61273 -88.3511 -84.182 -87.3462 -80.3857 101.56 -127.392 151.388 -86.1744
-142.267 -142.019 15.6951 -6.87325 -10.2681 174.479 171.491 -11.8932 156.441 245.318
255.896 194.724 213.028 236.306 251.192 216.318 267.314 252.361 266.513 265.072
1.17967 1.17417 1.20719 1.29648 1.56647 2.53172 3.3846 -0.856982 3.76237 -1.49361
-3.60087 -4.50492 -0.214238 0.0923296 0.164737 0.165391 0.141634 0.110691 0.0803879 0.0540249
0.0334988 0.0185401 0.0125424 0.00416487 48.8019 85.8653 -168.247 -169.578 -318.909 -312.134
-229.686 -329.085 -322.996 -228.323 -204.442 -258.513 -78.5221 -84.3466 -238.211 -198.316
-85.3465 -237.095 -101.112 -29.5174 -127.086 -95.3807 -118.804 -162.027 -146.725 -147.278

U 3 2021 float
19.9495 -0.0428158 -0.281578 20.0029 -0.0278662 -0.108049 19.8785 0.00220068 -0.115623 19.828 -0.0492525
-0.751043 20.0139 -0.0114299 -0.00595564 20.0147 -0.0114299 -0.00622971 20.1755 -0.0228874 0.0389118
20.2447 -0.0278143 0.0589916 20.2863 -0.0295488 0.174075 20.2702 0.00218973 0.328317 20.1815
0.000437585 0.267058 19.8648 -0.0142976 -0.00672716 19.9859 -0.0135628 -0.0117024 19.9947 -0.0138298
-0.0174519 19.5628 -0.0151962 -0.00405118 19.5527 -0.0146793 -0.00965202 19.9966 -0.0140489 -0.0215822
19.5467 -0.0140036 -0.0187749 19.9952 -0.0142591 -0.0239608 19.5409 -0.0138123 -0.0251499 19.9928
-0.0144387 -0.025167 19.5366 -0.0134493 -0.0289169 19.9898 -0.014542 -0.0256069 19.5337 -0.0130472
-0.0309156 19.9862 -0.0145164 -0.025536 19.5322 -0.0125872 -0.0316871 19.9819 -0.0143346 -0.0250912
19.532 -0.0120452 -0.0315937 19.9767 -0.0139838 -0.0244093 19.5337 -0.0114007 -0.0309919 19.9709
-0.0135333 -0.0233732 19.5362 -0.0106719 -0.0296292 19.9622 -0.0126141 -0.0225302 19.5418 -0.00932558
-0.0285779 19.5465 -0.00836507 -0.0285249 19.9588 -0.0119201 -0.0216459 19.9995 -0.000180113 3.06655e-05
20 0 0 20 0 0 19.9995 -0.000174512 8.31149e-05 19.9978
-0.000366183 0.000128782 19.9978 -0.000386443 0.000357242 19.9918 -0.000884978 0.000496292 19.9919 -0.000831421
0.00129893 19.9713 -0.00130889 0.000468691 19.9716 -0.00150609 0.00453223 19.9198 0.00333943 -0.0102341
19.9068 0.000118517 -0.0059138 19.9085 0.0146608 -0.0157762 19.8807 0.00170538 -0.0314631 19.8574
0.015563 -0.0662869 20.2281 -0.04001 -0.0143114 20.0094 -0.0260378 -0.0867977 20.2266 -0.0381638
-0.0170755 19.7853 -0.0119289 0.0707415 19.9787 -0.00403746 0.124733 20.2445 -0.0278033 0.0582784
19.5791 -0.016032 0.0050125 18.7709 0.0182916 -0.0280434 18.7649 0.0227666 -0.0312464 18.7712
0.0261927 -0.0326763 18.7759 0.0290241 -0.0343769 18.7823 0.03172 -0.0352385 18.7907 0.0341993
-0.0354558 18.8018 0.0363737 -0.0352639 18.8152 0.0382137 -0.0348677 18.8321 0.0396491 -0.0344068
18.8504 0.0408217 -0.0338189 18.8787 0.0412492 -0.0332894 18.8986 0.0410893 -0.0331195 20
0 0 19.9996 -0.000169956 0.000153154 19.998 -0.00039887 0.000625135 19.9925 -0.000790264
0.00225751 19.9722 -0.00160819 0.00822324 19.885 -0.00418805 0.0156061 19.8828 -0.00352921 0.00561084
19.7948 -0.00472761 -0.110586 19.7304 -0.00816524 -0.0679904 19.8076 -0.0383854 -1.24648 20.3189
-0.0134137 -1.3197 20.1069 -0.0307017 -0.714644 19.8178 -0.049944 -0.790235 20.2582 0.0294182
0.56926 20.258 0.0298963 0.573672 19.6337 0.124507 0.742912 19.4729 0.128479 0.541405
19.2757 0.0679694 0.315861 19.0001 -0.0246134 0.11999 17.0681 0.0515759 -0.0212912 18.7728