# vtk DataFile Version 2.0
sampleSurface
ASCII
DATASET POLYDATA
POINTS 2021 float
-0.500032 0 0.11501 -0.499951 3.38813e-21 0.0392727 -0.789037 8.47033e-21 0.120673 -0.500013 -1.35525e-20
0.193965 1.00003 0 0.0485099 1.00003 0 0.0478584 0.475202 0 0.0353615
0.250044 1.41878e-20 0.0305359 0.2506 -5.42101e-20 0.117067 0.251301 0 0.203885 0.364989
0 0.203772 1.75002 0 0.113255 1.75002 0 0.0564279 2.50001 6.89146e-18
0.059229 2.21354 0 0.250758 2.50001 0 0.252875 3.25001 -3.47927e-17 0.0598775
3.25001 -1.69407e-21 0.253888 4.00001 5.60566e-18 0.0599857 4 0 0.253986 4.75
-1.79088e-17 0.0599988 4.75 8.47033e-22 0.253998 5.5 -2.79246e-17 0.0599999 5.5 -4.23516e-22
0.253999 6.25 1.01187e-17 0.06 6.25 0 0.254 7 2.93732e-17 0.06
7 0 0.254 7.75 -2.65294e-17 0.06 7.75 0 0.254 8.5
1.8923e-17 0.06 8.5 0 0.254 9.25 -2.88552e-17 0.06 9.25 -5.29396e-23
0.254 10 -2.64698e-23 0.254 10 0 0.06 -4.24997 0 0.0599042
-5 0 0.0599861 -5 0 0.253986 -4.24997 0 0.253912 -3.49995
0 0.0593815 -3.49994 0 0.253441 -2.74993 0 0.0570188 -2.74991 0
0.251316 -1.99991 0 0.0492276 -1.99987 0 0.242776 -1.24992 -1.69407e-21 0.03
-1.24985 1.23328e-17 0.222327 -1.24989 3.38813e-21 0.125756 -0.874924 2.08116e-17 0.03 -0.874929
0 0.122356 -0.124951 -8.47033e-22 0.03 -0.499941 0 0.03 -0.124922 -8.47033e-22
0.0385291 1.00021 0 0.231242 0.625368 0 0.203537 0.25004 -2.11758e-22 0.03
1.75003 0 0.247334 1.92873 1.69407e-21 0.441438 2.50001 0 0.447397 3.25
-1.69407e-21 0.447898 4 0 0.447986 4.75 0 0.447997 5.5 -4.23516e-22
0.447999 6.25 4.23516e-22 0.447999 7 0 0.448 7.75 -1.05879e-22 0.448
8.5 0 0.448 9.25 0 0.448 10 -2.64698e-23 0.448 -5
-8.47033e-22 0.447985 -4.24997 0 0.447919 -3.49993 0 0.4475 -2.74988 0
0.445609 -1.9998 6.77626e-21 0.437758 -1.24969 1.61411e-17 0.417681 -1.24976 -6.77626e-21 0.31973
-0.875161 7.70461e-18 0.216228 -0.875403 0 0.312476 -0.499924 -8.74138e-19 0.250039 -0.312433
0 0.250037 -0.312436 0 0.200025 -0.499924 0 0.200026 0.250062 3.38813e-21
0.24921 0.250039 -1.69407e-21 0.250046 0.250032 0 0.300069 0.437526 3.05948e-18 0.300066
0.625026 0 0.30005 1.00072 -8.23994e-18 0.326497 1.00196 0 0.423 1.75013
0 0.439575 1.75013 1.77877e-20 0.448245 1.00135 0 0.537141 1.00002 0
0.61834 1.74999 2.71051e-20 0.633055 2.49999 -3.38813e-21 0.641448 3.25 0 0.641907
4 -1.69407e-21 0.641985 4.75 -8.47033e-22 0.641996 5.5 -4.23516e-22 0.641998 6.25
0 0.641999 7 0 0.641999 7.75 0 0.642 8.5 5.29396e-23
0.642 9.25 -5.29396e-23 0.642 10 0 0.642 -5 0 0.641985
-4.24997 -1.69407e-21 0.641926 -3.49993 0 0.641557 -2.74988 0 0.639897 -1.99989
6.77626e-21 0.63382 -1.25099 2.55465e-18 0.614606 -1.25 -2.71051e-20 0.515981 -0.878244 0
0.50789 -0.875961 2.71051e-20 0.459694 -0.875609 0 0.410432 -0.498432 0 0.400603
-0.498071 -1.70762e-18 0.413126 -0.450805 0 0.413349 -0.45095 0 0.400955 0.250009
1.89735e-19 0.412703 0.25 2.71051e-20 0.425212 0.296872 1.00289e-18 0.425187 0.343754 -2.71051e-20
0.425153 0.343763 0 0.400146 0.250006 0 0.400175 1.00162 1.41488e-17 0.520353
-2 4.23516e-22 0.820145 -2.09502 -2.11758e-22 0.830091 -2 0 0.829497 -1.25123
0 0.813251 -1.25126 0 0.713737 -1.25101 6.77626e-21 0.62198 1.00059 0
0.714169 1.00094 0 0.809205 1.75018 0 0.82775 2.5 0 0.835521
3.25 0 0.835917 4 -1.69407e-21 0.835986 4.75 -8.47033e-22 0.835996 5.5
0 0.835998 6.25 0 0.835999 7 0 0.835999 7.75 0
0.836 8.5 0 0.836 9.25 0 0.836 10 0 0.836
-5 -8.47033e-22 0.835986 -4.24997 0 0.835935 -3.49995 0 0.835616 -2.74991
0 0.83419 -0.970118 0 0.703382 -0.87455 0 0.699864 -0.874264 -2.71051e-20
0.649852 -0.874033 -2.71051e-20 0.599873 -0.49698 0 0.599585 -0.497345 -9.21572e-19 0.612046
-0.450014 0 0.611892 -0.44938 2.71051e-20 0.599454 -2.00002 0 0.84097 -1.84639
-3.38813e-21 1.02215 -1.25185 0 1.01276 -0.896512 -3.38813e-21 0.900668 -0.908183 6.77626e-21
0.801076 -0.904022 -1.86347e-20 1.00093 0.624925 0 0.799916 0.249931 0 0.799891
0.249978 0 0.899916 0.249997 0 0.999939 0.999987 0 0.999957 1.75061
-2.1684e-19 1.02409 2.50003 0 1.0296 3.25 -1.69407e-21 1.02993 4 0
1.02999 4.75 0 1.03 5.5 0 1.03 6.25 2.11758e-22 1.03
7 0 1.03 7.75 0 1.03 8.5 5.29396e-23 1.03 9.25
0 1.03 10 0 1.03 -5 0 1.02999 -4.24998 0
1.02994 -3.49996 -8.47033e-22 1.02968 -2.74996 0 1.02849 -2.00026 0 1.02458
-0.87482 0 0.799893 -0.87491 0 0.899919 -0.49993 0 0.799862 -0.499958
7.6233e-19 0.849889 -0.312476 0 0.849885 -0.312472 0 0.799853 -1.25001 8.04681e-21
1.19601 -0.499979 5.29396e-23 1.10737 -0.731886 2.11758e-22 1.19997 -0.499981 0 1.19997
-0.124987 0 0.999933 -0.477759 -5.29396e-23 0.999933 -0.487556 -1.45584e-22 1.09995 0.250008
0 1.19997 1 0 1.19997 1.7507 0 1.22203 2.50003 -1.35525e-20
1.22368 3.25 0 1.22394 4 0 1.22399 4.75 4.23516e-22 1.224
5.5 0 1.224 6.25 2.11758e-22 1.224 7 0 1.224 7.75
1.05879e-22 1.224 8.5 0 1.224 9.25 0 1.224 10 2.64698e-23
1.224 -5 4.23516e-22 1.22399 -4.24999 -4.23516e-22 1.22395 -3.49998 0 1.22374
-2.75001 0 1.22279 -2.00077 0 1.21965 -1.24997 4.23516e-22 1.19997 -0.499969
-5.29396e-23 0.999933 -0.874942 0 0.999936 -0.499979 -1.32349e-23 1.09995 -2.75001 0
1.36967 -3.18711 4.23516e-22 1.41751 -2.75001 4.23516e-22 1.4171 -2.00072 3.38813e-21 1.29692
-2.00065 0 1.41474 -1.25823 6.35275e-21 1.40014 -0.980416 0 1.39998 -0.499986
0 1.39998 0.250009 0 1.39998 1 0 1.39998 1.75054 0
1.41682 2.50002 -1.35525e-20 1.41776 3.25 0 1.41796 4 4.23516e-22 1.41799
4.75 0 1.418 5.5 0 1.418 6.25 0 1.418 7
0 1.418 7.75 0 1.418 8.5 0 1.418 9.25 0
1.418 10 0 1.418 -5 0 1.41799 -4.24999 0 1.41797
-3.49999 -4.23516e-22 1.41781 -1.24998 0 1.39998 -2.80392 1.32349e-23 1.61143 -2.75
-1.32349e-23 1.6114 -2.0003 0 1.60983 -1.25396 2.64698e-23 1.60004 -1.12789 2.64698e-23
1.59999 -0.49999 1.05879e-22 1.59999 0.250008 0 1.59999 1.00001 4.23516e-22 1.59999
1.75038 0 1.61122 2.50002 0 1.61184 3.25 -4.23516e-22 1.61197 4
-4.23516e-22 1.61199 4.75 0 1.612 5.5 0 1.612 6.25 0
1.612 7 0 1.612 7.75 5.29396e-23 1.612 8.5 2.64698e-23 1.612
9.25 -1.32349e-23 1.612 10 -1.32349e-23 1.612 -5 0 1.61199 -4.24999
0 1.61198 -3.49999 0 1.61187 -1.24999 0 1.59999 -2.75 -1.32349e-23
1.63714 -2.64195 -2.11758e-22 1.80559 -2.00012 -8.47033e-22 1.80492 -1.25741 0 1.80004
-1.19082 -7.94093e-23 1.8 -0.499992 1.05879e-22 1.79999 0.250006 2.11758e-22 1.79999 1
0 1.8 1.75023 0 1.80561 2.50001 3.38813e-21 1.80592 3.25 0
1.80599 4 0 1.806 4.75 2.11758e-22 1.806 5.5 0 1.806
6.25 0 1.806 7 0 1.806 7.75 0 1.806 8.5
2.64698e-23 1.806 9.25 0 1.806 10 0 1.806 -5 0
1.806 -4.25 -2.11758e-22 1.80599 -3.49999 0 1.80594 -2.75 -1.05879e-22 1.8057
-1.24999 0 1.8 -2 -4.76456e-22 1.98532 -1.20969 -1.65436e-23 2 -0.499993
0 2 0.250006 0 2 1 0 2 1.75 0
2 2.5 0 2 3.25 0 2 4 0 2
4.75 -1.05879e-22 2 5.5 0 2 6.25 0 2 7
5.29396e-23 2 7.75 0 2 8.5 0 2 9.25 0
2 10 -1.32349e-23 2 -5 2.21817e-18 2 -4.25 1.05879e-22 2
-3.49999 0 2 -2.74999 0 2 -1.99999 -5.29396e-23 2 -1.24999
3.30872e-24 2 0.0956945 -5.42101e-20 0.203879 0.0632748 0 0.203876 0.0625511 0
0.250042 -0.403589 6.77626e-21 0.40138 -0.405779 7.7927e-19 0.38799 -0.406379 -6.77626e-21 0.375196
-0.499567 -1.35525e-20 0.375265 0.250006 -6.50521e-19 0.375144 0.156247 0 0.375155 0.156237
9.41901e-19 0.400212 0.203129 0 0.400201 0.249796 0 0.59991 0.249852 -1.0842e-19
0.587433 0.202953 0 0.587417 0.202888 6.50521e-19 0.599901 0.625121 -6.77626e-21 0.499953
0.717439 6.77626e-21 0.504955 0.625095 6.77626e-21 0.475379 0.343596 1.0842e-19 0.599918 0.343639
0 0.574939 0.296781 0 0.574964 0.249926 0 0.574977 0.62499 -4.2826e-18
0.549927 0.624917 4.55365e-18 0.599925 0.203133 0 0.412725 -0.449046 0 0.587135
-0.496581 5.42101e-20 0.587161 0.625036 -9.32414e-18 0.40006 0.625067 1.13164e-18 0.450032 0.249704
0 0.624881 0.155871 0 0.599866 0.155839 1.95156e-18 0.624853 0.249886 1.35525e-20
0.749873 0.062411 0 0.749846 0.0624478 -4.26227e-18 0.799869 -0.312472 0 0.749804
-0.499901 -3.38813e-21 0.749824 -0.691227 0 0.30453 -0.499912 3.02221e-18 0.300065 -0.875784
-3.11708e-18 0.361353 -0.592465 -2.71051e-20 0.40036 -0.499854 0 0.350135 -0.687111 1.35525e-20
0.350117 -0.68656 -2.71051e-20 0.40021 0.437526 -1.35525e-20 0.400108 0.437522 6.77626e-21 0.350086
0.250015 -2.51399e-18 0.35011 0.625027 3.38813e-21 0.350064 -0.592287 0 0.425286 -0.498048
0 0.425444 -0.873902 5.42101e-18 0.54992 -0.496663 0 0.574746 -0.591532 0
0.574798 -0.591729 0 0.599734 -0.149108 0 0.406489 -0.149477 -5.29396e-23 0.403592
-0.149678 0 0.406489 -0.451876 -2.1684e-18 0.499977 -0.451579 0 0.487563 -0.498366
0 0.487552 -0.498515 -1.0842e-19 0.499993 0.437553 0 0.450075 0.437532 -6.07153e-18
0.425113 0.254621 -1.25361e-19 0.496697 0.26485 -5.42101e-20 0.498023 0.264831 0 0.496529
0.254636 -2.30393e-19 0.49668 0.570241 0 0.499932 0.437665 -2.71051e-20 0.474991 0.437859
-2.71051e-20 0.49988 0.437372 -1.0842e-19 0.599915 0.249722 3.25261e-19 0.649874 0.43732 -5.42101e-20
0.649899 0.624872 0 0.649914 0.624883 -3.95734e-18 0.699913 0.43734 6.83047e-18 0.699894
0.249817 0 0.699869 -0.592227 0 0.624743 -0.498071 -2.71051e-20 0.624658 -0.499769
6.77626e-21 0.69979 -0.687025 0 0.699824 -0.150854 -1.03677e-18 0.599678 -0.151059 -6.77626e-21
0.605522 -0.127339 6.77626e-21 0.605681 -0.127867 0 0.599582 -0.406139 -4.40457e-20 0.699754
-0.406113 0 0.674749 -0.499634 0 0.674774 -0.18433 -4.23516e-22 0.674527 -0.163626
-4.23516e-22 0.678958 -0.165125 0 0.674537 -0.171868 4.23516e-22 0.674524 -0.14924 3.34737e-19
0.400169 -0.125737 0 0.400165 -0.12551 0 0.393854 -0.149076 -2.11758e-22 0.393877
-0.499925 -2.61564e-18 0.325088 -0.406241 0 0.325087 -0.4062 0 0.300069 -0.124901
0 0.300062 -0.218633 -3.27294e-18 0.299673 -0.218596 1.35525e-20 0.324664 -0.124851 0
0.325085 -0.126061 7.86047e-19 0.406473 -0.0785222 1.30782e-18 0.400166 -0.126118 3.38813e-21 0.41275
-0.0785648 0 0.412729 0.240678 1.0842e-18 0.500153 0.252614 -2.1684e-19 0.498317 0.252386
1.0842e-19 0.496231 0.241035 0 0.496114 0.228892 -1.35525e-20 0.496204 0.228835 6.77626e-21
0.498715 0.229819 2.71051e-20 0.500074 0.25248 0 0.499935 0.240657 -1.6263e-19 0.500957
0.264863 0 0.500154 0.264689 0 0.500951 0.437443 0 0.549896 0.437406
[...]
POINT_DATA 2021
FIELD attributes 2
p 1 2021 float
2.00996 1.43834 2.37037 4.36349 0.0601419 0.0580255 -4.20486 -6.04394 -7.69323 -6.16589 -4.32061
0.496386 0.464219 0.111657 0.326604 0.174768 0.00343313 0.0271766 0.00564124 0.0144923 0.00975854
0.015681 0.00494178 0.0100204 0.000240282 0.00455793 -0.00137706 0.00231033 -0.00105677 0.00212089 -0.000447448
0.00214262 0.000580828 0.00335162 0 0 0.614735 0.61028 0.610129 0.61445 0.63562
0.634725 0.705583 0.702452 0.927635 0.924349 1.64186 1.76345 1.77871 2.23677 2.47729
-4.05764 1.36829 -4.11047 0.652848 -0.108097 -6.03372 0.572257 0.442672 0.189716 0.0292272
0.00734843 0.00951128 0.00566679 0.00106973 -0.000630103 -0.000293368 -0.00041156 0.00266199 0 0.609697
0.613681 0.632313 0.693421 0.90325 1.95739 2.03015 3.12912 3.87379 7.32536 -3.29907
-1.05155 4.58358 -5.73039 -5.72252 -2.26125 0.343652 0.830743 1.03351 0.928441 0.521745
0.517556 0.847912 0.880823 0.428117 0.167402 0.0230778 0.00237235 0.00657635 0.00443087 0.000472008
-0.000961377 -0.000431694 -0.000273199 0.00285602 0 0.609007 0.612492 0.628678 0.680737 0.86282
1.85131 2.13715 5.13595 5.59004 4.8273 32.5791 36.4644 52.035 45.991 4.77746
4.93052 3.41524 3.44432 2.69984 4.10149 0.841106 0.808779 0.788302 0.806066 1.39771
1.78677 1.84654 0.993721 0.483438 0.350132 0.127746 0.0136117 0.000541008 0.00703368 0.0062421
0.00264522 0.00118766 0.00149549 0.00207938 0.00351354 0 0.608132 0.611012 0.624247 0.665863
3.25356 3.75218 4.68433 4.76217 34.3649 32.7039 44.6304 50.7712 0.802234 0.781983
0.940643 1.70355 2.62851 1.14298 0.0816058 -4.8832 -5.30257 -2.74876 -0.22798 0.191252
0.0732971 -0.00548558 -0.0108203 -0.000834464 0.00099734 -0.00110489 -0.00167914 -0.000796946 0.000323868 0.00130109
0 0.607164 0.609391 0.61942 0.649885 0.740899 2.74812 1.73332 5.19182 3.29497
0.560534 -0.670666 0.698541 0.311913 0.313573 0.143597 -1.70924 0.674587 0.282395 -0.97396
-0.393569 0.0980898 0.0648169 -0.0028775 -0.0108018 -0.000929117 0.0015699 -0.00028252 -0.00084447 5.31342e-06
0.00106881 0.0015783 0 0.6062 0.607782 0.614575 0.633761 0.677409 0.693301 0.824676
1.15989 0.325404 0.622535 0.613807 0.61891 0.657151 0.626254 0.567284 0.384583 0.0601336
-0.564127 -0.377472 0.0463298 0.0593364 -0.00430039 -0.0150494 -0.00428788 -0.00067359 -0.00202951 -0.00233878
-0.00131819 -0.000134697 0.000447982 0 0.605337 0.606327 0.610154 0.566628 0.607136 0.607177
0.591173 0.496133 0.427599 0.0777681 -0.435121 -0.34864 -0.000869669 0.0481003 -0.0078599 -0.0187077
-0.00638028 -0.00167256 -0.00262628 -0.00275058 -0.00163055 -0.000382178 0.000268288 0 0.604659 0.605156
0.606612 0.495627 0.606198 0.595621 0.570854 0.458479 0.428143 0.0870875 -0.364872 -0.332727
-0.0273928 0.0430124 -0.00826294 -0.0197936 -0.00713363 -0.00208753 -0.00294424 -0.00300464 -0.00183762 -0.00056326
0.000131742 0 0.604222 0.604375 0.604271 0.59979 0.457356 0.564584 0.425989 0.0901757
-0.342506 -0.32758 -0.0356862 0.0414821 -0.00835905 -0.0202115 -0.00749221 -0.00231627 -0.00310369 -0.00310221
-0.00189226 -0.000598302 0.000117463 7.92016e-05 0.604068 0.604093 0.603428 0.597271 0.564074 0.445059
-10.287 -11.1451 -11.7947 70.4993 60.0887 43.8993 29.6781 2.93583 1.70079 4.41362
5.07686 4.16269 4.57952 6.21328 5.42683 2.0237 1.7336 2.14011 2.97948 3.68877
3.38752 3.99495 2.24485 1.91366 6.06624 56.2595 39.4524 1.93632 2.25986 3.6575
4.76177 2.17322 -4.53358 -11.2139 -9.84957 -3.18242 8.46916 7.00539 11.9063 4.75067
17.466 20.824 9.13839 10.5189 2.58568 1.50416 1.00097 1.65881 19.7331 36.9209
5.61424 39.6519 20.3335 18.824 -58.7137 -58.4955 -58.7108 68.4712 68.3839 47.5691
44.8033 3.41318 3.11634 -4.97468 0.378993 0.22895 -5.02411 2.58632 3.9809 3.93978
2.86831 1.84064 1.76465 1.62794 0.950642 0.76321 -1.36207 17.0098 28.1124 13.3013
7.27956 -56.5245 -56.3114 -58.774 -58.6981 13.8855 19.124 18.491 -46.2761 -42.7225
-44.4011 -45.1351 -58.2412 -57.5106 -57.5148 -57.6612 16.6156 15.8935 12.0094 -29.3646
-27.9695 -45.3623 -37.0598 -58.8319 -46.002 -58.6663 -48.1335 10.9813 4.303 10.5034
11.8382 9.08437 9.35885 9.64624 4.52867 11.1037 0.934841 0.767684 3.72513 3.48355
4.06421 4.32188 47.7624 68.3538 -58.8249 -56.4551 6.51263 11.1106 -51.4331 -52.7161
-58.4185 4.4957 6.30522 6.47586 6.5094 -31.429 -40.0368 -49.4297 -29.7814 64.417
60.8017 41.6636 41.4123 -44.0645 -56.0408 -11.5295 -8.59629 -0.444421 -24.544 -42.4307
42.991 44.3181 64.3172 66.4883 -51.7903 -49.9569 -50.7255 0.322518 -9.69403 -12.7373
-11.7068 -21.6936 -24.8963 -57.839 44.0473 21.8562 22.1503 11.7046 12.0213 12.1952
13.1462 22.0275 44.5123 10.8004 12.4636 11.9038 13.2438 -58.6362 -58.628 -58.1225
-58.1098 -57.4596 -56.8402 -56.4748 45.8269 66.8395 -58.2957 -58.5665 -58.9599 -58.204
-29.8476 -35.076 -32.8013 -13.7718 -1.6111 -4.92636 -50.6184 -50.2771 -58.0043 -13.1692
0.124557 0.0382719 -13.4042 -58.2752 -56.8159 -51.3106 -12.5118 -10.2373 -3.72454 1.55199
-7.37171 -5.588 -18.6284 -38.3503 -41.4533 -36.3663 -52.204 -53.2148 -52.9528 -4.10011
-17.5194 -18.2687 -4.72093 -56.0458 -51.9628 -56.0722 -3.53792 -9.2596 -16.568 -11.6654
67.5405 46.8768 -54.1968 -54.3624 -56.7692 -56.6552 -56.1718 -53.6765 -57.0603 -53.1411
-55.9353 -58.9182 -59.0439 -59.0865 -32.094 -77.035 -96.0657 -101.015 -103.236 -102.796
-48.5513 -50.1619 -54.1846 -48.2154 -49.8277 -98.055 -99.4044 -71.2711 -34.2812 -58.435
-59.2356 -58.9174 -56.256 -57.1483 -57.2154 -57.1409 -57.5474 7.13579 6.05218 8.94982
-56.0363 -55.7118 -55.9371 -55.4298 -55.554 -55.8168 -56.2235 -55.0966 -55.0811 2.06194
1.85463 0.737508 1.24044 4.22675 4.596 1.35593 -55.8241 -56.2851 -56.9292 5.82096
6.65038 2.79644 0.898198 3.16369 -32.1173 -38.1386 -37.3769 -31.708 -54.5373 -55.0289
-57.9355 -57.6165 -54.935 -55.7675 -38.9419 -43.297 -43.1047 -36.9613 -46.1027 -50.1357
-53.2314 -53.3818 -52.2289 123.597 131.456 146.797 146.886 -58.1163 -56.1791 -56.4538
-57.8147 -57.6422 4.45118 2.16543 3.07786 4.67921 -9.74425 -3.92491 -5.8725 -8.90453
-11.7905 -39.0696 -36.8925 -25.6085 -27.3208 -32.1323 -39.0875 -24.8685 -24.9175 31.1114
41.2912 52.1326 37.9362 23.079 19.2926 34.2666 26.1598 0.672262 0.830557 1.98921
34.0912 24.9147 17.1208 22.2226 2.90775 3.84997 4.49087 4.59961 3.7162 6.68526
6.795 4.61641 -9.34501 -8.22633 -1.37372 -10.2282 14.6907 9.14991 10.8253 -54.6291
-56.8831 -57.0135 -54.8232 -82.649 -81.3687 -84.6072 -47.9112 -12.6643 -18.3185 -27.5609
-55.9972 -52.8104 -55.3381 -56.433 -74.0402 -73.7875 -58.3975 -59.6392 -49.5704 -47.9614
-50.2288 -50.3796 3.77413 3.83641 -0.579602 6.00366 5.65954 4.67532 5.34617 5.73921
6.14669 -54.1177 -53.6453 -68.7664 -67.9781 79.0237 94.1243 85.7244 112.123 106.436
88.8544 90.1672 161.861 164.194 153.375 121.641 98.4197 104.358 97.3163 117.655
-12.9097 -26.9716 -31.2985 -5.87248 -26.1502 -52.0539 -41.7304 -6.34548 93.7337 101.232
86.8139 78.2821 96.7083 88.4049 107.616 148.471 158.222 167.411 165.148 106.633
102.91 159.639 -32.667 -8.00238 -38.3464 -28.5563 -47.7397 140.215 140.085 115.609
110.589 110.251 115.515 139.609 138.993 108.141 167.239 170.845 172.014 172.306
173.715 186.653 186.842 174.822 173.274 -33.0426 -40.1459 -32.9948 -56.4385 -50.8425
-42.7083 -41.9471 -40.689 -25.6193 2.76744 -2.61418 -0.659182 173.394 175.338 187.194
172.366 186.51 187.153 175.226 172.173 179.601 181.764 170.115 168.883 179.899
167.883 171.1 182.423 -52.6009 -37.8342 -36.5867 -55.6991 -55.7426 -55.8473 -36.385
-46.2346 -36.4858 -36.9501 -45.8434 -45.811 -3.37437 -9.24052 -25.1235 -25.1686 -32.9714
-43.6011 -32.9998 -32.6923 -43.0175 -21.2507 -18.9301 -20.6849 115.426 140.145 138.13
139.04 114.683 109.312 170.04 169.914 170.482 167.745 136.403 108.402 113.579
137.154 -57.1287 -54.2042 -52.8206 -52.6448 -55.6716 -46.1463 90.1875 93.4692 78.7361
-14.8826 -6.16654 -6.70465 -20.8073 54.5475 56.4094 70.0108 73.6611 -55.8623 -55.1096
-55.408 -55.8574 -57.0332 -57.2812 -57.4207 -57.5205 -56.127 -56.2214 -55.8046 -55.9084
-134.778 -109.238 -77.6993 -95.6164 -97.9745 -99.1171 -99.1089 -83.2366 -78.9584 -92.5516
-70.2298 -85.0133 -132.621 -136.334 -128.34 -96.1954 -97.0077 -54.7818 -54.239 -54.9276
-56.0317 -56.3214 -53.8712 -53.7931 6.80282 7.34828 13.7613 16.389 13.8524 -50.9406
-50.2094 -45.7545 -45.9908 -46.0504 -45.8449 -45.8175 -45.5998 12.9302 12.6658 16.8479
8.28991 8.09335 9.65394 10.1332 10.1591 8.52221 7.34079 8.10028 12.4014 15.6959
13.7177 0.792365 -0.84045 -3.0275 7.05465 6.22174 5.10149 6.43934 7.16245 -52.4748
-53.3554 -56.3149 -55.6344 -48.6392 -49.6092 13.6515 15.6217 17.0209 -46.7239 -49.6647
-49.7971 -46.4348 -45.5816 11.355 11.0985 11.1411 9.56691 6.87592 -6.91996 -5.68562
5.51233 6.31758 6.2718 -48.5156 -48.8471 146.516 148.541 140.962 136.998 113.409
118.354 125.759 121.241 184.614 185.89 182.192 178.434 -55.6895 -55.6243 -53.0326
-52.9415 169.642 183.363 185.061 173 174.456 186.576 171.034 182.148 169.63
179.283 -16.9028 -19.1813 -23.9345 -28.1803 -26.785 -22.9045 -8.74914 -3.41757 -3.86378
-9.0568 -14.0833 -13.7117 -1.03587 -9.06904 -9.93862 -15.0215 -18.1534 -8.21732 -8.9751
-24.9583 -20.2302 -9.65986 -0.779896 -3.053 6.0593 -3.49752 6.0418 6.81211 3.39149
3.92045 4.64232 4.20038 7.72769 6.09889 3.96899 5.82736 -18.9145 -15.9895 -26.3292
-21.4554 -56.416 -58.1282 -58.721 -58.593 3.055 3.12247 5.04999 5.52709 4.29994
4.89752 -14.5494 -40.2917 -57.2254 -65.4362 -53.2373 -31.8801 -58.9005 10.7355 10.1943
10.2175 -2.32598 0.2979 11.9871 17.2228 9.51268 23.652 20.5394 10.432 1.75567
6.84814 8.33446 13.1123 11.5525 6.8015 -53.4403 -44.0468 -49.9049 -13.0599 -43.8974
-24.9485 -60.6146 -83.7181 108.773 92.8378 106.265 108.452 112.808 111.954 172.889
172.012 173.263 172.579 171.281 185.969 185.97 185.204 -57.9549 -58.1722 174.49
-56.1791 -56.1776 -57.1184 -57.282 -56.9941 -55.8194 -149.447 -136.342 -136.243 -132.969
-157.097 -136.162 -132.47 -132.78 -119.605 -114.972 -80.2432 -73.1432 -73.476 -70.8557
-119.401 -121.137 -56.7591 -55.7589 -54.6537 -57.1351 9.50521 7.14819 10.7114 8.25253
11.0252 12.0554 12.4261 13.4164 14.2018 -55.2667 -54.3339 -56.2902 -55.1044 -53.1446
-52.8786 -52.993 -54.9287 -5.90316 -0.427152 -1.37172 -4.53988 9.20584 9.57075 6.82836
5.8804 7.59195 9.56863 8.81621 6.74524 1.32393 8.18494 7.07927 6.9126 8.70396
10.4371 9.25648 12.0771 11.3647 -54.6956 -55.1221 -55.198 -55.3251 -55.476 -55.3249
-54.8208 -52.8189 -54.14 -54.1486 -54.1627 -51.0976 -52.4887 -73.8052 -73.0278 -57.6466
-59.9398 -77.6163 -68.4625 -77.464 -123.898 -128.485 -136.109 -79.5521 -97.5929 -107.396
-80.4163 -98.9333 128.79 113.631 148.553 151.775 -54.6046 -53.8285 -54.94 -54.9247
-53.1433 143.897 167.881 146.156 -48.9949 -48.155 -48.6018 -49.3787 -49.196 -49.2133
-49.1401 -47.6261 -8.06029 -9.34302 -11.8833 -10.9991 -14.8565 -17.0355 -19.1756 -16.9632
-17.8906 74.824 85.5234 -58.4624 51.2525 76.5458 65.013 75.6622 61.1246 14.0428
11.1745 45.6726 36.6476 8.36048 9.19839 3.65534 5.31674 5.12644 7.81033 6.73228
7.0976 7.48326 8.29243 -52.7897 -52.3481 -52.0593 -52.6458 -0.962279 -0.455203 -1.02714
2.31625 5.71972 5.16341 7.10943 6.54466 -50.973 -51.3926 -51.1157 138.223 136.309
171.195 184.786 189.091 189.378 186.869 185.345 -55.7511 -55.4565 -55.7763 -55.5993
-53.1708 -45.5338 -46.3674 -47.0078 -46.2103 -46.5484 -47.848 -56.0799 -56.1053 -56.6979
-57.2879 -56.9897 -56.9733 -57.1359 -56.748 -55.084 -115.739 -111.392 -134.613 -111.145
-134.092 -122.316 -123.744 -133.471 -56.1845 -57.4468 -55.8897 -54.5666 13.7227 12.3462
11.3157 12.4967 12.7483 13.4052 -36.8044 -36.2854 -31.4783 -30.9418 -41.7839 -42.3111
-46.4684 -46.0804 -51.1085 -51.1568 -45.5562 -52.1495 -51.7871 -6.0926 -0.883313 -11.3361
0.757638 2.18572 8.0395 7.57402 7.89654 4.349 10.702 7.38368 8.78914 10.2555
10.8971 10.7891 10.9302 12.6894 12.3631 2.45638 12.4214 14.8057 15.9685 3.90228
3.41256 3.14924 3.82806 -58.9185 -58.0741 -52.885 -56.4905 -44.6666 -44.148 -40.107
-44.4751 -45.8745 -49.9207 -51.1104 -49.5754 -49.791 -49.5571 -47.1009 -52.195 -47.1662
4.22485 -48.2794 -49.556 141.039 131.854 129.443 129.502 129.882 114.406 106.995
188.667 188.14 187.145 -50.7244 -51.0515 -1.32786 -0.755858 0.281873 -29.627 -30.5522
186.062 186.897 180.375 183.334 181.881 181.51 -33.2199 -29.0467 -3.09972 -7.74244
-5.86714 -3.14081 -24.7381 -13.6051 -10.1856 -13.3917 -19.8107 -4.58384 80.8823 56.5223
60.856 21.0704 21.438 68.0198 110.711 10.1495 7.19732 -2.18227 -2.44391 6.84264
7.63427 7.92302 6.12931 6.57715 24.5474 16.3137 -0.391409 19.7776 -1.69668 3.52742
8.17544 8.10108 68.0255 110.214 -54.7373 -55.8255 18.1349 91.6883 109.091 100.407
92.4586 108.073 109.184 126.594 134.334 143.208 -55.8101 81.7505 73.7549 50.6002
12.603 18.6572 16.8287 -75.3845 -56.8415 -56.835 -56.8383 -55.2493 -55.1774 -59.9097
-55.4221 -59.8826 -60.462 23.3375 -6.46988 5.96142 10.5607 10.79 -1.33258 -1.43576
-2.53959 -55.6074 -54.1485 -0.971622 2.57766 2.88437 -57.5045 -56.9414 -56.0894 8.00428
7.69214 4.19074 -56.594 41.6818 49.8653 -66.2161 -58.5632 17.7565 15.2936 8.99914
6.92128 5.08941 8.52552 6.97276 -54.1483 -54.1077 -52.9324 -52.8612 -55.7929 -52.2051
-51.7297 -54.4614 -54.761 -54.7509 -54.2498 -55.317 -54.8941 -54.7626 -54.5092 4.5177
-51.7202 -57.8089 -56.7804 100.544 129.187 144.741 155.207 168.113 162.952 160.763
148.761 188.251 -52.8223 -53.7438 -51.9115 -7.42126 -10.4604 -3.26621 -49.6943 -49.7157
-49.6966 -49.9759 -53.1316 -47.1975 -48.7562 -47.5256 -47.0241 -47.7295 28.8984 20.3325
-112.167 -119.768 -119.625 -120.257 -120.6 -73.9951 -96.5892 -73.999 13.4412 17.0478
-10.8136 12.0681 11.5133 -5.48034 -7.04848 4.10633 2.49362 0.980031 0.644836 -0.626671
-2.25021 -0.995903 4.14805 4.53326 0.618216 2.855 4.50757 2.41425 1.32665 13.3842
17.6523 -50.0404 5.53559 12.773 8.53928 16.4662 8.51801 11.1915 14.1932 15.9619
4.80798 5.02425 6.49494 5.92101 -1.99202 -3.8962 -6.12716 -6.02793 4.92335 1.76608
4.44775 9.44943 15.3162 16.5169 8.25189 5.71594 3.12346 2.81645 7.21902 10.6622
11.3143 11.952 11.0864 5.75467 -3.4167 5.63058 -2.66893 3.29486 -3.42545 2.53651
10.9861 8.32999 12.3542 6.99555 9.46238 11.3762 10.7793 10.4804 7.94059 8.62082
9.13957 9.38714 7.91317 7.38165 7.38711 6.04457 -5.37213 -8.86085 -7.08407 6.51364
5.91611 7.97205 6.28928 -9.06082 -10.8017 1.17267 7.09216 5.93616 -1.56184 5.72637
-136.578 -137.383 -137.679 10.2823 -55.5617 -54.5253 -54.5743 5.26889 9.92753 5.36039
8.42085 11.0343 -55.7205 -55.6901 -55.0534 -54.7423 -60.9891 -60.4833 -60.9653 -69.0213
-115.956 -119.756 -113.644 -120.466 -48.9551 -49.4827 -47.4219 -47.1217 -47.3912 -47.0957
-14.6491 -14.6484 -17.0705 -52.6025 -52.4171 -52.1739 5.17011 1.56393 5.01829 4.99139
-51.9729 -52.4111 -52.5346 141.799 151.145 -55.2554 -50.7136 13.4205 13.963 11.5965
7.23699 11.4808 18.7038 4.2523 3.37076 4.71076 3.70471 -53.2638 -57.2238 -57.0421
-55.2888 7.77871 15.0623 11.1146 4.11735 4.26614 10.0765 8.82746 9.51098 8.62526
10.3981 12.4133 10.2594 5.86815 8.58467 8.23847 -54.1228 -50.1446 -48.4966 91.2506
80.2886 84.2468 66.7854 72.7665 -4.75143 -2.88338 0.348132 -1.43474 7.67379 8.18203
7.7266 8.30326 8.06722 7.56686 7.11118 116.849 106.811 94.7702 -73.9236 -57.3297
-56.023 -54.8507 -54.682 -54.3234 -54.3027 163.488 139.771 161.898 162.007 7.71321
4.58609 10.6723 11.3802 7.24502 8.57286 7.47727 6.93849 6.19555 2.81046 -2.30223
4.79969 5.43591 6.0166 4.38947 6.68658 14.4188 9.04871 -12.6072 15.6078 14.2727
7.66015 10.7608 15.936 9.14252 -12.532 -13.444 -11.5276 -2.74129 -4.73751 -12.9481
7.26886 5.3516 -14.5365 -16.1273 7.24794 4.90561 -0.922644 -3.75311 -55.0284 -45.868
13.1309 1.98636 0.329662 -0.0563815 6.03155 5.59494 6.52721 6.11228 6.06824 5.64789
0.382469 6.31237 6.95271 -0.349564 5.77009 4.79883 7.22899 6.72383 6.15314 106.226
86.6987 122.037 123.824 5.22911 4.96007 3.52768 -55.2451 5.15887 6.13459 5.91378
-9.49705 -12.4453 -0.183232 6.31401 6.80143 5.46973 8.14776 5.27158 6.97161 3.96105
37.384 -53.1934 -55.1872 -54.6803 -54.6464 -54.7067 -2.8854 -4.25379 -12.3915 -12.2612
-12.2832 -3.30049 9.43929 3.21809 6.04706 7.10907 2.68093 2.47265 0.216512 -0.737786
-10.7303 -5.09385 -3.98539 -11.0884 -4.03037 -11.9328 5.656 -11.1865 -12.2194 -2.32007
1.28045 6.4137 6.42831 5.85928 8.88281 0.327668 6.71683 -3.0118 -0.999699 4.40803
-0.674685 7.26921 4.88252 -9.7963 9.03783 -0.546125 6.21713 1.13423 1.51243 4.89204
5.25057 4.32965 5.05541 3.22429 7.69648 8.93256 5.51499 6.122 1.03782 3.49968
11.102 5.62113 0.923502 -0.450004 3.70149 173.167 176.989 176.121 181.033 169.134
168.104 172.684 179.958 180.95 69.7482 73.9381 55.1336 -56.1454 -41.5238 -38.645
-36.8974 -30.9789 -43.7999 -51.9426 -51.5928 -55.2828 -46.7882 100.804 154.483 162.121
155.262 147.001 -56.6062 -56.2036 -56.5441 -56.3121 -55.8234 -56.2719 -54.9054 -55.2082
-55.0504 4.03131 -0.27772 171.248 -18.383 186.024 190.271 189.419 -51.3324 -47.322
182.758 185.889 186.065 -16.3703 -51.1285 85.2813 -55.0181 -55.1486 -55.4043 -55.3718
-49.4591 189.394 -2.37323 189.51 185.531 189.104 7.39184 -64.2709 110.691 110.003
-55.8949 4.65174 -51.7567 -53.0549 -51.8706 -137.896 138.748 -54.8665 159.235 -51.9932
-120.68 -120.598 72.3005 7.00075 2.69059 168.092 164.705 -15.4035 139.857 191.115
190.01 185.412 189.465 190.799 189.794 172.805 191.17 186.791 189.964 191.205
0.614751 0.610286 0.63561 0.704714 0.9186 1.62243 2.20789 -3.98607 1.35536 0.0252701
-4.09994 -5.86974 0.409086 0.0902348 -0.00157671 0.00543435 0.0104766 0.0057853 0.00106742 -0.000602092
-0.000341483 0.000209816 0.00113366 0.000612236 -54.1392 -52.4189 -133.927 -134.482 -47.9705 -48.4366
-49.1134 -47.8108 -48.3199 -49.0403 -49.7051 -47.3096 -95.152 -74.7921 -48.8256 -47.1521
-74.2297 -48.7494 -51.2486 -51.604 -50.717 -99.5907 -111.204 -129.434 -119.754 -119.575

U 3 2021 float
20.0062 -0.0458942 -0.216026 20.0439 -0.0308055 -0.0740795 19.929 -0.00646648 -0.096574 19.9355 -0.0559422
-0.607208 20.0175 -0.0592361 0.0399954 20.0178 -0.0591315 0.040028 20.1682 -0.0781453 0.0575642
20.233 -0.0863342 0.0656065 20.2785 -0.0912825 0.149404 20.291 -0.115791 0.264154 20.21
-0.117077 0.2089 19.9545 -0.0471835 0.0198673 19.9967 -0.0545623 0.0183577 20.0037 -0.0528352
0.00698117 19.8532 -0.0245791 0.0176881 19.852 -0.0213689 0.0141405 20.0059 -0.0525425 0.00190143
19.8543 -0.0199604 0.00965986 20.0044 -0.0517247 0.000525252 19.8534 -0.0183181 0.0087643 20.0026
-0.0509005 -5.689e-06 19.8521 -0.0167713 0.00846317 20.0011 -0.0501373 -0.000286676 19.8509 -0.0154411
0.00822731 19.9996 -0.0494516 -0.000468123 19.8499 -0.0142839 0.00801052 19.998 -0.0487934 -0.000594134
19.8488 -0.0132279 0.00782226 19.9963 -0.0481477 -0.000692926 19.8477 -0.0122683 0.00762344 19.9946
-0.0475161 -0.000729469 19.8466 -0.0113881 0.00753435 19.9927 -0.0468623 -0.000820457 19.8456 -0.0104627
0.00725843 19.8451 -0.00998264 0.00695935 19.9923 -0.0466507 -0.000862014 19.9996 -0.00034194 3.12696e-05
20 0 0 20 0 0 19.9996 -0.000341959 7.85929e-05 19.9983
-0.000790064 9.38307e-05 19.9984 -0.000799511 0.000278551 19.9942 -0.00155395 0.000368147 19.9941 -0.00151859
0.000999939 19.9788 -0.00280554 0.000335849 19.9795 -0.00312781 0.00357796 19.9464 -0.00548147 -0.00906853
19.9362 -0.00624329 -0.00797683 19.9389 0.0022644 -0.0143403 19.9277 -0.00545 -0.0295335 19.9061
0.00524318 -0.0610573 20.2334 -0.0727069 0.00182572 20.0485 -0.0289587 -0.0566941 20.2355 -0.071789
0.00509804 19.9273 -0.088969 0.0306248 20.0247 -0.118251 0.0820938 20.2327 -0.0863028 0.0650873
19.8551 -0.0297719 0.023427 19.3074 0.119755 0.0101825 19.3395 0.117184 0.011269 19.3675
0.111476 0.0113154 19.3886 0.107183 0.0119946 19.4069 0.103394 0.0124948 19.4238 0.0998063
0.0126672 19.4398 0.096417 0.0126702 19.4547 0.0932288 0.0125969 19.469 0.0901895 0.012456
19.482 0.0873098 0.0123421 19.4967 0.084498 0.0120616 19.5055 0.0830548 0.0118031 20
0 0 19.9996 -0.000342478 0.000137205 19.9985 -0.000797731 0.000490152 19.9945 -0.00152443
0.00171926 19.98 -0.00324898 0.00603395 19.9197 -0.00877985 0.0107361 19.9194 -0.00796082 0.000999359
19.8498 -0.0165917 -0.0958298 19.7932 -0.0205202 -0.0681822 19.9555 -0.0512209 -1.02596 20.4349
-0.0680139 -0.935999 20.2162 -0.0536118 -0.50961 19.9304 -0.0559649 -0.636722 20.3098 -0.163218
0.453713 20.3101 -0.164098 0.457176 20.1008 -0.249144 0.583229 19.9905 -0.238368 0.301714