# vtk DataFile Version 2.0
tracks
ASCII
DATASET POLYDATA
POINTS 2610 float
-1.001 -0.05 0.0011 -0.900789 -0.0500231 0.0010972 -0.800577 -0.0500462 0.00109441 -0.700366 -0.0500692
0.00109162 -0.600155 -0.0500922 0.00108884 -0.499943 -0.0501151 0.00108607 -0.424945 -0.0501198 0.00107816
-0.349947 -0.0501635 0.00106784 -0.274949 -0.0502067 0.00105762 -0.19995 -0.0502495 0.0010475 -0.124952
-0.0502919 0.00103747 -0.0499538 -0.0503024 0.00103802 0.0250446 -0.0503111 0.00104752 0.100043 -0.0503199
0.0010571 0.175041 -0.0503287 0.00106677 0.25004 -0.0503377 0.00107652 0.400037 -0.0503305 0.00109387
0.550035 -0.0503286 0.00110984 0.700032 -0.0503266 0.00112604 0.85003 -0.0503246 0.00114247 1.00003
-0.0503226 0.00115915 1.15003 -0.050335 0.00116697 1.30002 -0.0503419 0.00117263 1.45002 -0.0503488
0.00117831 1.60002 -0.0503557 0.00118403 1.75002 -0.0503627 0.00118977 1.90002 -0.0503729 0.00119302
2.05002 -0.050381 0.00119579 2.20001 -0.0503891 0.00119857 2.35001 -0.0503972 0.00120135 2.50001
-0.0504053 0.00120415 2.65001 -0.050415 0.0012055 2.80001 -0.0504247 0.00120642 2.95001 -0.0504344
0.00120733 3.10001 -0.0504441 0.00120825 3.25001 -0.0504539 0.00120917 3.40001 -0.0504633 0.00120962
3.55001 -0.0504735 0.00121018 3.70001 -0.0504836 0.00121074 3.85001 -0.0504938 0.00121131 4.00001
-0.050504 0.00121187 4.15 -0.0505132 0.00121206 4.3 -0.0505237 0.00121256 4.45 -0.0505343
0.00121307 4.6 -0.0505449 0.00121357 4.75 -0.0505554 0.00121408 4.9 -0.0505644 0.00121419
5.05 -0.0505752 0.00121485 5.2 -0.0505861 0.00121551 5.35 -0.0505969 0.00121617 5.5
-0.0506078 0.00121683 5.65 -0.0506165 0.00121694 5.8 -0.0506275 0.00121782 5.95 -0.0506386
0.00121871 6.1 -0.0506496 0.0012196 6.25 -0.0506607 0.00122049 6.4 -0.0506692 0.00122063
6.55 -0.0506804 0.00122184 6.7 -0.0506916 0.00122304 6.85 -0.0507028 0.00122425 7
-0.050714 0.00122546 7.15 -0.0507224 0.00122564 7.3 -0.0507337 0.00122713 7.45 -0.050745
0.00122862 7.6 -0.0507563 0.00123011 7.75 -0.0507677 0.0012316 7.9 -0.050776 0.00123182
8.05 -0.0507874 0.00123353 8.2 -0.0507988 0.00123525 8.35 -0.0508102 0.00123698 8.5
-0.0508217 0.0012387 8.65 -0.0508299 0.00123895 8.8 -0.0508413 0.00124082 8.95 -0.0508528
0.0012427 9.1 -0.0508642 0.00124458 9.25 -0.0508757 0.00124646 9.4 -0.0508839 0.00124672
9.55 -0.0509463 0.00125031 9.7 -0.0510655 0.00125572 9.85 -0.0512416 0.00126296 10
-0.0514745 0.00127201 -1.001 -0.05 0.0537316 -0.900807 -0.0501224 0.0535718 -0.800614 -0.0502455
0.0533839 -0.700422 -0.0503957 0.0531615 -0.600229 -0.0505813 0.0529027 -0.500035 -0.0508023 0.0526077
-0.425004 -0.051074 0.052383 -0.349974 -0.0514401 0.0520924 -0.274943 -0.0518564 0.0518242 -0.199913
-0.0523081 0.0516015 -0.124879 -0.0527425 0.0514648 -0.0498865 -0.0530324 0.0515127 0.0251064 -0.0532713
0.0516992 0.100099 -0.0535042 0.0519587 0.175092 -0.0537462 0.0522692 0.250087 -0.0539823 0.0526156
0.400077 -0.0544007 0.0533028 0.550067 -0.0548197 0.0538557 0.700057 -0.0551981 0.0543559 0.850048
-0.0555359 0.054803 1.00003 -0.0558424 0.0551964 1.15003 -0.0562726 0.0555029 1.30003 -0.0566655
0.0557888 1.45002 -0.0570575 0.0560381 1.60002 -0.0574487 0.0562509 1.7434 -0.0578221 0.0564192
1.74472 -0.0578258 0.0564206 1.74605 -0.0578294 0.0564219 1.74737 -0.0578331 0.0564232 1.74869
-0.0578367 0.0564245 1.75002 -0.0578404 0.0564259 1.90002 -0.0582562 0.0565755 2.05002 -0.0586687
0.0567072 2.20001 -0.0590781 0.056821 2.35001 -0.0594843 0.0569169 2.50001 -0.0598872 0.0569948
2.65001 -0.0602961 0.0570601 2.80001 -0.0607033 0.0571175 2.95001 -0.0611085 0.0571659 3.10001
-0.0615116 0.0572054 3.25001 -0.0619126 0.0572359 3.40001 -0.062314 0.0572603 3.55001 -0.0627147
0.057283 3.70001 -0.0631127 0.057303 3.85001 -0.0635078 0.0573205 4 -0.0639001 0.0573353
4.15 -0.0642903 0.0573479 4.3 -0.0646812 0.0573606 4.45 -0.0650691 0.0573726 4.6
-0.0654541 0.0573839 4.75 -0.0658363 0.0573945 4.9 -0.066215 0.057404 5.05 -0.0665956
0.0574146 5.2 -0.0669735 0.0574252 5.35 -0.0673488 0.0574358 5.5 -0.0677214 0.0574464
5.65 -0.0680895 0.0574559 5.8 -0.0684604 0.0574674 5.95 -0.0688291 0.0574792 6.1
-0.0691954 0.0574914 6.25 -0.0695593 0.0575038 6.4 -0.069918 0.0575151 6.55 -0.0702804
0.0575288 6.7 -0.0706408 0.0575431 6.85 -0.070999 0.0575578 7 -0.0713553 0.0575729
7.15 -0.0717057 0.0575864 7.3 -0.0720603 0.0576027 7.45 -0.0724131 0.0576194 7.6
-0.0727642 0.0576365 7.75 -0.0731134 0.0576541 7.9 -0.0734564 0.0576693 8.05 -0.073804
0.0576877 8.2 -0.0741501 0.0577064 8.35 -0.0744945 0.0577253 8.5 -0.0748373 0.0577446
8.65 -0.0751738 0.0577612 8.8 -0.0755148 0.0577809 8.95 -0.0758543 0.0578006 9.1
-0.0761924 0.0578205 9.25 -0.0765289 0.0578403 9.4 -0.076859 0.0578573 9.55 -0.0771944
0.0578773 9.7 -0.0775291 0.0578971 9.85 -0.0778632 0.057917 10 -0.0781965 0.0579368
-1.001 -0.05 0.106363 -0.900818 -0.0500939 0.106131 -0.800636 -0.0501861 0.105849 -0.700455
-0.0503086 0.10552 -0.600275 -0.0505076 0.104966 -0.50009 -0.0507829 0.104189 -0.424996 -0.0510963
0.103596 -0.349902 -0.0514749 0.102984 -0.274807 -0.051859 0.102442 -0.199711 -0.0521851 0.102012
-0.124607 -0.0525553 0.101921 -0.0496046 -0.0528241 0.102051 0.0253974 -0.0530334 0.102306 0.100399
-0.0532278 0.102647 0.1754 -0.0534428 0.103078 0.250411 -0.0536784 0.103599 0.400346 -0.054115
0.104675 0.550283 -0.054553 0.105609 0.70022 -0.0549539 0.106446 0.850158 -0.0553282 0.107105
1.00009 -0.0556757 0.107585 1.15007 -0.0561803 0.107874 1.30006 -0.0565178 0.108193 1.45005
-0.0568 0.108492 1.60004 -0.0570773 0.108757 1.75002 -0.0573498 0.108988 1.90002 -0.0577145
0.109152 2.05002 -0.0580028 0.109325 2.20001 -0.0582849 0.109482 2.35001 -0.0585648 0.10962
2.50001 -0.0588427 0.109741 2.65001 -0.0591898 0.109827 2.80001 -0.059482 0.109903 2.95001
-0.0597715 0.10997 3.10001 -0.0600589 0.110029 3.25001 -0.0603442 0.110079 3.40001 -0.0606834
0.110124 3.55001 -0.0609743 0.110155 3.70001 -0.0612619 0.110184 3.85001 -0.0615467 0.110211
4 -0.0618285 0.110234 4.15 -0.0621559 0.110268 4.3 -0.0624407 0.110284 4.45
-0.0627223 0.1103 4.6 -0.0630009 0.110315 4.75 -0.0632765 0.110329 4.9 -0.0635918
0.110359 5.05 -0.063869 0.11037 5.2 -0.0641434 0.110381 5.35 -0.064415 0.110392
5.5 -0.0646839 0.110402 5.65 -0.0649883 0.110433 5.8 -0.065258 0.110443 5.95
-0.0655253 0.110453 6.1 -0.0657901 0.110463 6.25 -0.0660525 0.110474 6.4 -0.0663474
0.110506 6.55 -0.0666103 0.110517 6.7 -0.0668709 0.110528 6.85 -0.0671295 0.11054
7 -0.0673859 0.110552 7.15 -0.0676723 0.110586 7.3 -0.0679289 0.110599 7.45
-0.0681837 0.110613 7.6 -0.0684366 0.110627 7.75 -0.0686877 0.110641 7.9 -0.0689664
0.110677 8.05 -0.0692177 0.110692 8.2 -0.0694673 0.110708 8.35 -0.0697152 0.110723
8.5 -0.0699616 0.110739 8.65 -0.0702335 0.110777 8.8 -0.0704795 0.110794 8.95
-0.070724 0.110811 9.1 -0.0709669 0.110828 9.25 -0.0712083 0.110845 9.4 -0.0714737
0.110883 9.55 -0.0717157 0.1109 9.7 -0.071957 0.110918 9.85 -0.0721977 0.110935
10 -0.0724377 0.110952 -1.001 -0.05 0.158995 -0.900796 -0.0501045 0.158761 -0.800593
-0.0502274 0.158403 -0.700392 -0.0504135 0.157648 -0.600196 -0.0506767 0.15641 -0.499992 -0.0510083
0.154535 -0.42472 -0.0516476 0.15291 -0.349436 -0.0521542 0.151989 -0.274147 -0.0525909 0.151436
-0.198856 -0.0530257 0.151158 -0.123699 -0.0533748 0.151229 -0.0487813 -0.053514 0.151402 0.0261352
-0.0536012 0.151912 0.10105 -0.0537447 0.152669 0.175963 -0.0539151 0.153525 0.250943 -0.0540699
0.154413 0.400783 -0.0542788 0.155943 0.550625 -0.0548086 0.15722 0.700469 -0.0553248 0.158033
0.850315 -0.0557708 0.158674 1.00014 -0.0561897 0.159136 1.15012 -0.0567666 0.159407 1.30009
-0.0571757 0.159709 1.45007 -0.0574841 0.160002 1.60005 -0.0577086 0.160282 1.75002 -0.0579282
0.160528 1.90002 -0.0582414 0.160706 2.05002 -0.0584775 0.160894 2.20002 -0.0586999 0.161066
2.35001 -0.0589125 0.161223 2.50001 -0.0591232 0.161362 2.65001 -0.0594037 0.161465 2.80001
-0.0596291 0.161559 2.95001 -0.0598505 0.161645 3.10001 -0.0600688 0.161723 3.25001 -0.0602851
0.161791 3.40001 -0.0605553 0.161855 3.55001 -0.0607774 0.161906 3.70001 -0.0609956 0.161954
3.85001 -0.0612104 0.162 4 -0.0614224 0.162044 4.15 -0.0616796 0.162097 4.3
-0.0618946 0.162133 4.45 -0.062106 0.162168 4.6 -0.062314 0.162203 4.75 -0.0625191
0.162237 4.9 -0.0627635 0.162287 5.05 -0.0629703 0.162318 5.2 -0.0631739 0.162349
5.35 -0.0633746 0.16238 5.5 -0.0635726 0.16241 5.65 -0.0638056 0.16246 5.8
-0.0640045 0.16249 5.95 -0.0642007 0.16252 6.1 -0.0643944 0.162551 6.25 -0.0645858
0.162581 6.4 -0.0648089 0.162632 6.55 -0.0650007 0.162664 6.7 -0.0651902 0.162695
6.85 -0.0653775 0.162727 7 -0.0655627 0.162759 7.15 -0.065777 0.162812 7.3
-0.0659624 0.162845 7.45 -0.0661458 0.162879 7.6 -0.0663274 0.162913 7.75 -0.0665072
0.162947 7.9 -0.0667138 0.163002 8.05 -0.0668937 0.163038 8.2 -0.0670719 0.163074
8.35 -0.0672484 0.16311 8.5 -0.0674233 0.163146 8.65 -0.0676229 0.163203 8.8
-0.0677975 0.163241 8.95 -0.0679705 0.163279 9.1 -0.0681419 0.163317 9.25 -0.0683119
0.163355 9.4 -0.0685049 0.163413 9.55 -0.0686755 0.163452 9.7 -0.0688453 0.16349
9.85 -0.0690144 0.163528 10 -0.0691829 0.163567 -1.001 -0.05 0.211626 -0.947506
-0.0500906 0.211463 -0.894012 -0.0501864 0.211264 -0.840518 -0.0502875 0.211031 -0.787025 -0.0504344
0.21073 -0.723306 -0.0506966 0.210231 -0.678631 -0.0509887 0.209566 -0.633959 -0.0513393 0.208672
-0.589291 -0.0516951 0.20764 -0.544627 -0.0520573 0.20647 -0.499928 -0.0524271 0.205158 -0.470663
-0.0527233 0.204132 -0.441399 -0.0530293 0.203047 -0.412131 -0.0533209 0.202084 -0.38286 -0.0535991
0.201237 -0.336253 -0.0540275 0.200029 -0.293961 -0.0544024 0.199082 -0.251666 -0.0547768 0.198336
-0.209365 -0.0551545 0.197934 -0.167063 -0.0554975 0.197852 -0.124882 -0.0557564 0.198058 -0.0496098
-0.0560814 0.198844 0.0256599 -0.0562288 0.199866 0.100924 -0.0563355 0.201231 0.176187 -0.0564695
0.202683 0.231882 -0.056561 0.203601 0.235801 -0.0565664 0.203659 0.239721 -0.0565717 0.203717
0.24364 -0.056577 0.203774 0.24756 -0.0565821 0.203831 0.251479 -0.0565873 0.203887 0.326237
-0.0566828 0.204952 0.400997 -0.0567851 0.20588 0.475758 -0.0568938 0.206671 0.55052 -0.057036
[...]
POINT_DATA 2610
FIELD attributes 4
age 1 2610 float
0 0.00501118 0.0100224 0.0150335 0.0200447 0.0250559 0.0288054 0.032553 0.0363005 0.0400481 0.0437957
0.047544 0.0512894 0.0550348 0.0587801 0.0625253 0.0700219 0.0775208 0.0850196 0.0925184 0.100017
0.107517 0.115017 0.122517 0.130017 0.137517 0.145017 0.152517 0.160016 0.167516 0.175016
0.182516 0.190016 0.197515 0.205015 0.212515 0.220014 0.227514 0.235014 0.242513 0.250013
0.257513 0.265013 0.272512 0.280012 0.287512 0.295012 0.302512 0.310011 0.317511 0.325011
0.332511 0.34001 0.34751 0.35501 0.36251 0.37001 0.377509 0.385009 0.392509 0.400009
0.407509 0.415008 0.422508 0.430008 0.437508 0.445008 0.452507 0.460007 0.467507 0.475007
0.482507 0.490006 0.497506 0.505006 0.512506 0.520006 0.527505 0.535003 0.5425 0.549996
0 0.00502603 0.0100533 0.0150743 0.0200866 0.0250904 0.0288281 0.0325596 0.036284 0.0400014
0.0437122 0.0474156 0.0511119 0.0548063 0.0585006 0.0621968 0.0696023 0.0770346 0.0844824 0.091946
0.0994249 0.106918 0.114413 0.121909 0.129406 0.136575 0.136641 0.136707 0.136773 0.136839
0.136906 0.144406 0.151907 0.159406 0.166905 0.174403 0.181901 0.189398 0.196895 0.204391
0.211887 0.219384 0.22688 0.234375 0.241872 0.249368 0.256864 0.264361 0.271857 0.279354
0.28685 0.294348 0.301844 0.309341 0.316839 0.324336 0.331834 0.339331 0.346828 0.354326
0.361823 0.369321 0.376819 0.384317 0.391815 0.399312 0.406811 0.414309 0.421807 0.429305
0.436803 0.444301 0.451799 0.459298 0.466796 0.474294 0.481793 0.489292 0.49679 0.504289
0.511788 0.519287 0.526786 0.534285 0.541784 0.549283 0 0.00502813 0.0100581 0.0150819
0.0200987 0.0251088 0.0288546 0.032593 0.0363218 0.0400455 0.0437591 0.047461 0.0511569 0.0548517
0.0585455 0.062239 0.0696316 0.0770529 0.0844932 0.0919563 0.0994419 0.106943 0.114446 0.121952
0.12946 0.136968 0.144482 0.15199 0.159498 0.167005 0.174511 0.182022 0.189527 0.197031
0.204535 0.212039 0.219548 0.227051 0.234554 0.242058 0.249561 0.25707 0.264574 0.272078
0.279581 0.287085 0.294595 0.302099 0.309603 0.317107 0.324611 0.332121 0.339626 0.34713
0.354634 0.362139 0.369649 0.377154 0.384658 0.392163 0.399667 0.407178 0.414682 0.422187
0.429692 0.437196 0.444707 0.452212 0.459717 0.467222 0.474726 0.482238 0.489743 0.497247
0.504753 0.512258 0.519769 0.527275 0.53478 0.542285 0.549791 0 0.00503029 0.0100666
0.0150999 0.0201269 0.0251488 0.0289136 0.0326661 0.0364062 0.0401355 0.0438475 0.0475395 0.0512258
0.054911 0.0585953 0.0622834 0.0696642 0.0770833 0.0845342 0.092001 0.0994896 0.106998 0.114509
0.122025 0.129544 0.137065 0.144591 0.152112 0.159632 0.167153 0.174672 0.182196 0.189715
0.197232 0.20475 0.212267 0.219789 0.227306 0.234823 0.242339 0.249856 0.257378 0.264895
0.272412 0.279929 0.287446 0.294969 0.302486 0.310004 0.317521 0.325038 0.332562 0.340079
0.347597 0.355114 0.362632 0.370156 0.377673 0.385191 0.392709 0.400226 0.40775 0.415268
0.422786 0.430303 0.437821 0.445345 0.452863 0.460381 0.467899 0.475417 0.482941 0.490459
0.497977 0.505495 0.513014 0.520538 0.528057 0.535575 0.543093 0.550612 0 0.00268922
0.00538014 0.00807276 0.0107647 0.0139688 0.0162138 0.0184583 0.0207021 0.0229449 0.0251887 0.0266554
0.0281203 0.0295824 0.0310417 0.0333599 0.0354556 0.0375448 0.039628 0.041705 0.0437698 0.0474448
0.051121 0.0547981 0.0584818 0.0612161 0.0614088 0.0616016 0.0617944 0.0619872 0.0621801 0.065859
0.0695485 0.0732486 0.0769596 0.0806811 0.0813693 0.0820575 0.0827458 0.0834342 0.0841013 0.0871628
0.0902266 0.0932926 0.096361 0.0994311 0.106947 0.114465 0.121988 0.129516 0.137048 0.144586
0.152119 0.159651 0.167184 0.174716 0.182254 0.189785 0.197315 0.204845 0.212375 0.219911
0.22744 0.23497 0.242499 0.250029 0.257564 0.265094 0.272624 0.280153 0.287683 0.295219
0.302749 0.310279 0.317809 0.32534 0.332876 0.340406 0.347936 0.355467 0.362997 0.370533
0.378064 0.385594 0.393124 0.400655 0.408191 0.415722 0.423252 0.430783 0.438313 0.44585
0.45338 0.460911 0.468442 0.475972 0.483509 0.49104 0.498571 0.506101 0.513632 0.521169
0.5287 0.536231 0.543762 0.551293 0 0.00126461 0.0025296 0.00379528 0.00506176 0.00632908
0.0101172 0.0139134 0.0177212 0.0215354 0.0253318 0.0268609 0.0283803 0.0298932 0.0313994 0.0327719
0.0331437 0.0335151 0.033886 0.0342566 0.0346271 0.0364543 0.0382745 0.0400854 0.0418909 0.0436866
0.0454853 0.0472883 0.0491035 0.0509233 0.0527474 0.0528042 0.052861 0.0529177 0.0529745 0.0530323
0.0548038 0.0565785 0.0583562 0.0601372 0.0619211 0.0656133 0.0693235 0.0730527 0.0767928 0.0805403
0.0843005 0.0880615 0.091824 0.095589 0.0993556 0.106886 0.114419 0.121955 0.129495 0.137039
0.144603 0.152149 0.159696 0.167243 0.17479 0.182347 0.189893 0.197438 0.204983 0.212527
0.220082 0.227626 0.23517 0.242714 0.250258 0.257813 0.265357 0.272901 0.280445 0.287989
0.295544 0.303088 0.310633 0.318177 0.325722 0.333277 0.340821 0.348366 0.35591 0.363455
0.37101 0.378555 0.386099 0.393644 0.401188 0.408744 0.416288 0.423833 0.431377 0.438922
0.446478 0.454022 0.461566 0.469111 0.476655 0.484212 0.491756 0.499301 0.506845 0.51439
0.521946 0.529491 0.537035 0.54458 0.552124 0 0.00126569 0.0025319 0.00379863 0.00506589
0.0063337 0.00822852 0.0101258 0.0120255 0.0139281 0.0158327 0.0177507 0.0196735 0.021597 0.0235236
0.0254625 0.0264335 0.027402 0.0283661 0.0293257 0.0302851 0.0307321 0.0311778 0.0316216 0.0320635
0.0325444 0.0330292 0.0335117 0.0339919 0.0344698 0.0349448 0.0358546 0.0367611 0.0376633 0.0385612
0.0394501 0.0403381 0.0412245 0.0421101 0.0429951 0.043881 0.0451524 0.0464299 0.0477138 0.0490032
0.0490488 0.0498115 0.0505757 0.0513415 0.0521088 0.052877 0.0547033 0.0565442 0.0583969 0.0602563
0.0621158 0.0639856 0.065857 0.0677307 0.0696071 0.0714877 0.0733751 0.0752577 0.0771362 0.0790164
0.0809015 0.0843732 0.0878496 0.0913271 0.0948053 0.0976634 0.0981038 0.0985442 0.0989846 0.0994251
0.0998656 0.10744 0.115017 0.122603 0.1302 0.137806 0.145442 0.15305 0.160654 0.168258
0.175861 0.183486 0.191087 0.198686 0.206284 0.213883 0.221503 0.229101 0.236698 0.244295
0.251893 0.259511 0.267108 0.274705 0.282301 0.289899 0.297516 0.305113 0.312709 0.320306
0.327903 0.335519 0.343116 0.350712 0.358309 0.365906 0.37352 0.381116 0.388712 0.396309
0.403905 0.411518 0.419115 0.426711 0.434307 0.441903 0.449515 0.457111 0.464707 0.472303
0.4799 0.48751 0.495107 0.502702 0.510298 0.517894 0.525503 0.533099 0.540695 0.548291
0.555887 0 0.00126307 0.00252683 0.00379166 0.0050577 0.00632497 0.00823566 0.0101484 0.0120649
0.0139849 0.0159101 0.0178281 0.0197591 0.0217028 0.023659 0.0256371 0.0266368 0.0276371 0.0286377
0.0296369 0.0306479 0.0308739 0.0311 0.0313257 0.0315499 0.0317291 0.0324989 0.0332558 0.0339994
0.0347282 0.0354489 0.0358954 0.0363401 0.0367831 0.0372246 0.0376604 0.0380971 0.0385309 0.0389623
0.0393929 0.0398209 0.0402518 0.0406824 0.0411131 0.0415442 0.0419779 0.0424117 0.0428448 0.0432782
0.0437126 0.0441494 0.0450228 0.0459058 0.0468 0.0477043 0.0486259 0.0492539 0.0498814 0.0505106
0.0511422 0.0518829 0.0521644 0.0524461 0.0527281 0.0530104 0.0532933 0.0542445 0.0551924 0.0561433
0.057101 0.0580599 0.0590271 0.0599947 0.0609636 0.0619346 0.0629069 0.0648694 0.0668272 0.0687798
0.0707362 0.0726722 0.0745969 0.0765342 0.0784841 0.0804399 0.0823987 0.0863337 0.0902692 0.0941865
0.0980843 0.101988 0.109788 0.117563 0.125285 0.132953 0.140628 0.148339 0.156025 0.163707
0.171385 0.179061 0.186754 0.194429 0.202101 0.209771 0.217441 0.225127 0.232796 0.240464
0.248131 0.255798 0.263479 0.271146 0.278811 0.286476 0.294141 0.301819 0.309484 0.317148
0.324811 0.332474 0.340149 0.347812 0.355474 0.363136 0.370798 0.378469 0.386131 0.393791
0.401452 0.409112 0.41678 0.42444 0.4321 0.439758 0.447417 0.455083 0.462741 0.470399
0.478057 0.485714 0.493378 0.501035 0.508692 0.516348 0.524003 0.531664 0.53932 0.546975
0.55463 0.562285 0 0.00126476 0.00253018 0.00379627 0.00506303 0.00633107 0.00824882 0.010169
0.0120925 0.0140224 0.0159647 0.0169355 0.0179091 0.0188859 0.0198659 0.0208491 0.0218374 0.0228338
0.0238392 0.0248536 0.0258786 0.0263966 0.0269163 0.0274396 0.0279665 0.0284998 0.0287487 0.0289986
0.0292502 0.0295038 0.029607 0.0299387 0.0302721 0.030607 0.0309416 0.0312861 0.0313627 0.0314393
0.031516 0.0315928 0.031653 0.0316818 0.0317105 0.0317392 0.0317679 0.0317955 0.0319824 0.0321692
0.0323558 0.0325422 0.0327304 0.0328839 0.0330371 0.0331899 0.0333407 0.0334579 0.0335844 0.0337099
0.0338346 0.033958 0.0340836 0.0341893 0.0342936 0.0343966 0.0344987 0.0345827 0.0346233 0.0346638
0.0347041 0.0347442 0.0347836 0.0348982 0.0350122 0.0351256 0.0352382 0.0353493 0.0354521 0.0355539
0.0356547 0.0357548 0.0359091 0.036034 0.0361584 0.0362823 0.0364057 0.0365132 0.0366136 0.0367142
0.0368147 0.0369151 0.0371217 0.0372219 0.037322 0.037422 0.0375218 0.0376206 0.037788 0.0379547
0.0381215 0.0382888 0.0387059 0.038904 0.0391021 0.0393005 0.0394991 0.0397946 0.0400138 0.0402328
0.0404519 0.0406711 0.0408908 0.0411098 0.0413283 0.041547 0.0417661 0.0419869 0.0422083 0.0424285
0.0426493 0.0428707 0.0430932 0.0435078 0.043925 0.0443481 0.0447769 0.0449241 0.0450143 0.0451046
0.045195 0.0452855 0.0453764 0.0458507 0.0463222 0.0467941 0.0472629 0.0477473 0.0482458 0.0487381
0.0492361 0.0497383 0.0501501 0.0501698 0.0501894 0.0502091 0.0502287 0.0502484 0.0503108 0.0503734
0.0504361 0.0504992 0.0505614 0.0515496 0.0525806 0.0536403 0.0546694 0.0557235 0.0569078 0.058069
0.0592448 0.0604294 0.0616152 0.0617847 0.0619541 0.0621234 0.0622929 0.0624692 0.0628339 0.0631971
0.0635603 0.0639244 0.0643523 0.0644072 0.0644621 0.0645171 0.064572 0.0646269 0.0652316 0.0658374
0.0664442 0.0670515 0.0676572 0.0688655 0.0700565 0.0712398 0.0724227 0.0735981 0.0747423 0.0759204
0.0771036 0.0782789 0.079448 0.0798353 0.0802227 0.0806105 0.0809989 0.0814178 0.0833281 0.0852419
0.0871371 0.0890138 0.0908675 0.0953696 0.0998524 0.104299 0.108653 0.112883 0.121119 0.129303
0.137429 0.145497 0.153425 0.16103 0.168633 0.176233 0.183831 0.191205 0.191421 0.191638
0.191854 0.192071 0.192288 0.200054 0.20782 0.215587 0.223353 0.23112 0.238873 0.24664
0.254407 0.262175 0.269943 0.277688 0.285457 0.293226 0.300996 0.308767 0.316505 0.324276
0.332049 0.339822 0.347596 0.355327 0.363101 0.370876 0.378652 0.386429 0.394154 0.401931
0.409709 0.417487 0.425267 0.432986 0.440766 0.448546 0.456328 0.46411 0.471824 0.479607
0.48739 0.495174 0.502959 0.510669 0.518453 0.526239 0.534026 0.541813 0.549518 0.557303
0.56509 0.572878 0.580667 0 0.00125448 0.00250992 0.00376672 0.00502501 0.00628491 0.00821705
0.0101519 0.0120896 0.0140344 0.0159939 0.0169674 0.0179448 0.0189263 0.0199118 0.0209014 0.0218968
0.0229029 0.0239207 0.0249503 0.025993 0.0265223 0.0270545 0.0275934 0.0281391 0.0286939 0.0292599
0.0298337 0.0304194 0.0310185 0.0316454 0.0319644 0.0322831 0.032603 0.0329238 0.0331709 0.0331888
0.0332067 0.0332246 0.0332425 0.0332604 0.0334012 0.033542 0.0336827 0.0338204 0.0339043 0.0340871
0.0342662 0.0344417 0.0346131 0.0347903 0.0349255 0.0350583 0.0351887 0.0353161 0.0354301 0.0355579
0.0356851 0.0358117 0.0359364 0.0360546 0.0361671 0.0362768 0.0363841 0.0364909 0.0366294 0.0367429
0.0368562 0.0369694 0.0370824 0.0371856 0.0372552 0.0373247 0.0373947 0.0374652 0.0375536 0.0379504
0.0383532 0.0387663 0.0391787 0.0395564 0.0400208 0.040476 0.0409277 0.0413763 0.0418279 0.0423027
0.0427523 0.0431967 0.0436446 0.044104 0.0445917 0.0450726 0.0455462 0.0460252 0.0465157 0.0475069
0.0485018 0.049515 0.0501817 0.0518493 0.0529741 0.0541024 0.0552602 0.0564493 0.05768 0.0589627
0.06023 0.0614817 0.0627399 0.0640084 0.0649649 0.0659135 0.0668595 0.0678011 0.0690872 0.0693537
0.0696203 0.0698873 0.0701545 0.0704218 0.0707449 0.0710687 0.0713926 0.0717168 0.0720638 0.0723776
0.0726913 0.073005 0.0733185 0.0736315 0.0742737 0.0749116 0.0755491 0.0761852 0.0768184 0.078093
0.0793655 0.0806453 0.081922 0.0831967 0.08574 0.0882896 0.0908051 0.0932839 0.0957122 0.0990888
0.102442 0.105745 0.108987 0.115537 0.11628 0.117019 0.117754 0.118485 0.119212 0.127809
0.136324 0.144657 0.152794 0.160738 0.168511 0.176324 0.184135 0.191947 0.199758 0.207515
0.215325 0.223135 0.230945 0.238755 0.246501 0.25431 0.26212 0.269931 0.277742 0.285479
0.29329 0.301102 0.308914 0.316728 0.324459 0.332272 0.340086 0.347901 0.355717 0.363442
0.371257 0.379074 0.386891 0.39471 0.402429 0.410247 0.418066 0.425886 0.433707 0.441421
0.449241 0.457062 0.464885 0.472709 0.480418 0.48824 0.496064 0.503888 0.511715 0.519419
0.527244 0.535071 0.542898 0.550726 0.558426 0.566251 0.574077 0.581904 0.589734 0
0.00125943 0.00251957 0.0037804 0.0050427 0.0063067 0.00823634 0.010169 0.0121046 0.0140477 0.0160054
0.0169792 0.0179571 0.0189392 0.0199255 0.0209161 0.0219117 0.0229179 0.0239358 0.0249656 0.0260086
0.0265384 0.0270709 0.0276092 0.0281542 0.0287088 0.0292725 0.0298439 0.0304244 0.0310174 0.0316404
0.0319569 0.0322739 0.0325911 0.0329085 0.0332381 0.0334571 0.033675 0.0338913 0.0341025 0.0341998
0.0343181 0.0344351 0.0345506 0.0346648 0.0347825 0.0349702 0.0351518 0.0353278 0.0354986 0.0356528
0.0357418 0.0358306 0.0359188 0.0360061 0.036091 0.0361839 0.036275 0.0363664 0.036458 0.0365736
0.0366269 0.0366799 0.0367329 0.0367856 0.036848 0.0369298 0.0370116 0.0370933 0.037175 0.0372523
0.0377137 0.0381851 0.0386709 0.039164 0.0395854 0.0400498 0.0405051 0.0409613 0.0414191 0.0418813
0.0423598 0.0428277 0.043297 0.0437688 0.044245 0.0447415 0.0452238 0.0457082 0.0461966 0.0466927
0.0477291 0.0487857 0.0498556 0.0509361 0.0520446 0.0523755 0.0527042 0.0530345 0.0533668 0.0537082
0.0545347 0.0553736 0.0562228 0.0570827 0.0579542 0.0592126 0.060462 0.0617221 0.0630061 0.0642865
0.064506 0.0647274 0.0649483 0.0651688 0.0653923 0.0658103 0.0662273 0.0666438 0.06706 0.0674753
0.0681166 0.0687496 0.0693823 0.0700145 0.0706478 0.0719263 0.073211 0.0744884 0.0757585 0.0770181
0.0780149 0.0789981 0.0799815 0.0809671 0.0820969 0.0823477 0.0825986 0.0828495 0.0831005 0.0833513
0.0858828 0.0883989 0.0908995 0.0933466 0.0957661 0.100579 0.105299 0.109913 0.114428 0.118827
0.124039 0.129216 0.13432 0.139354 0.151089 0.152942 0.154786 0.156619 0.158443 0.160257
0.168028 0.175801 0.183574 0.191345 0.199116 0.20687 0.214641 0.222412 0.230182 0.237953
0.245696 0.253466 0.261237 0.269009 0.276781 0.284516 0.292288 0.300061 0.307834 0.315609
0.323337 0.331112 0.338888 0.346664 0.354441 0.362164 0.369941 0.377719 0.385499 0.393279
0.400995 0.408775 0.416556 0.424338 0.432121 0.439832 0.447615 0.455398 0.463183 0.470968
0.478675 0.48646 0.494246 0.502033 0.509821 0.517523 0.525311 0.5331 0.540889 0.548679
0.556377 0.564165 0.571954 0.579745 0.587537 0 0.00128037 0.0025614 0.00384374 0.00512761
0.00641303 0.00832047 0.0102305 0.0121433 0.0140628 0.0159947 0.0169677 0.0179439 0.0189234 0.0199064
0.020893 0.0218884 0.0228929 0.0239073 0.0249318 0.0259687 0.0264352 0.0269036 0.0273758 0.0278518
0.0279678 0.0280998 0.0282319 0.0283641 0.0284964 0.0286289 0.0291734 0.0297223 0.030278 0.0308425
0.0314281 0.0314379 0.0314476 0.0314573 0.031467 0.0314765 0.031515 0.0315534 0.0315918 0.0316302
0.031666 0.0319093 0.0321525 0.0323956 0.0326386 0.032886 0.03298 0.0330739 0.0331677 0.0332612
0.0333401 0.0335385 0.0337361 0.0339321 0.0341253 0.0343237 0.0343665 0.0344092 0.0344516 0.0344939
0.0345328 0.0345699 0.034607 0.0346438 0.0346805 0.0347151 0.0349178 0.0351165 0.0353112 0.0354975
0.0356737 0.0357104 0.0357469 0.0357833 0.0358196 0.0358573 0.035929 0.0360002 0.0360709 0.0361422
0.0362399 0.0363541 0.0364674 0.0365798 0.0366913 0.0367988 0.0369293 0.0370586 0.0371873 0.0373161
0.0375239 0.0375912 0.0376584 0.0377259 0.0377938 0.0378608 0.0380745 0.0382864 0.0384987 0.0387098
0.0389222 0.0391424 0.0393581 0.0395712 0.0397847 0.04 0.0402179 0.0404339 0.0406491 0.0408648
0.0410828 0.0413056 0.0415248 0.0417427 0.0419608 0.04218 0.0424006 0.0426192 0.0428371 0.0430556
0.0432757 0.0437239 0.0441716 0.044622 0.0450753 0.0455316 0.046003 0.0464583 0.0469157 0.0473757
0.047845 0.0483235 0.0487963 0.0492648 0.0497361 0.0502195 0.0512193 0.0522238 0.0532411 0.054278
0.0553598 0.055889 0.0564187 0.056951 0.0574871 0.0580554 0.0586593 0.0592649 0.0598738 0.0604863
0.0611039 0.0622963 0.0634565 0.0645992 0.0657602 0.0669456 0.0681695 0.0693629 0.0705287 0.0716895
0.0728434 0.0736225 0.0743981 0.0751754 0.0759543 0.0767123 0.0770601 0.0774082 0.0777566 0.0781053
0.0784684 0.0785083 0.078548 0.0785878 0.0786276 0.0786674 0.0810078 0.0833517 0.0856975 0.0880302
0.0903491 0.0949667 0.0996406 0.104201 0.108558 0.112814 0.121221 0.129578 0.137865 0.145964
0.153879 0.161641 0.1694 0.177156 0.184909 0.192659 0.196719 0.200779 0.204838 0.208897
0.212915 0.216608 0.220302 0.223996 0.22769 0.231384 0.239122 0.246865 0.254609 0.262354
0.270099 0.277829 0.285575 0.293321 0.301068 0.308816 0.31654 0.324288 0.332037 0.339787
0.347538 0.355256 0.363007 0.370759 0.378511 0.386265 0.393978 0.401731 0.409486 0.417241
0.424998 0.432705 0.440462 0.448219 0.455977 0.463736 0.471439 0.479198 0.486958 0.494719
0.50248 0.51018 0.517941 0.525704 0.533467 0.541231 0.548926 0.556688 0.564452 0.572216
0.579982 0 0.00127799 0.00255673 0.00383664 0.00511788 0.00640047 0.00830312 0.0102078 0.0121154
0.014028 0.0159489 0.0169141 0.0178811 0.0188502 0.0198216 0.0207952 0.0217702 0.0227504 0.0237359
0.0247261 0.0257203 0.0267128 0.0277118 0.0287195 0.0297228 0.0307347 0.0308085 0.0308823 0.0309562
0.0310298 0.031098 0.0320262 0.0329354 0.0338247 0.034693 0.0355624 0.0360141 0.0364638 0.0369117
0.0373583 0.0377992 0.0381401 0.0384795 0.0388183 0.0391567 0.0399922 0.0404278 0.0408633 0.0412989
0.0417345 0.0421696 0.0426057 0.0430417 0.0434785 0.0439161 0.0443547 0.0452322 0.0461165 0.0470084
0.0479064 0.0488171 0.0497529 0.0506792 0.051596 0.052517 0.0534514 0.0547 0.0559668 0.0572414
0.0585264 0.0609904 0.0614298 0.0618691 0.0623084 0.0627477 0.0631868 0.0651804 0.0671583 0.0691283
0.071108 0.0730921 0.0750524 0.0770411 0.0790353 0.0810333 0.0830367 0.0870675 0.091129 0.0951546
0.0991188 0.10309 0.107305 0.111535 0.115765 0.119974 0.125581 0.129054 0.132509 0.135947
0.139366 0.142768 0.150495 0.158222 0.165946 0.173667 0.181386 0.189097 0.196811 0.204524
0.212235 0.219945 0.22765 0.235357 0.243063 0.250768 0.258472 0.266173 0.273875 0.281576
0.289277 0.296978 0.304675 0.312374 0.320072 0.327769 0.335466 0.343161 0.350856 0.358551
0.366245 0.373939 0.381632 0.389325 0.397017 0.404708 0.412399 0.42009 0.42778 0.43547
0.443159 0.450848 0.458536 0.466224 0.473912 0.481599 0.489286 0.496973 0.504659 0.512345
0.52003 0.527715 0.535399 0.543083 0.550767 0.55845 0.566134 0 0.00127458 0.00254982
0.00382553 0.00510251 0.00638078 0.00827774 0.0101769 0.0120784 0.0139831 0.015892 0.017803 0.0197194
0.0216411 0.023568 0.0255034 0.0264761 0.027446 0.0284111 0.0293712 0.029867 0.0309125 0.0319507
0.0329782 0.0339952 0.0350015 0.0359134 0.0368222 0.0377267 0.0386283 0.0395199 0.0404125 0.0413028
0.0421916 0.043079 0.0439635 0.0457382 0.0475287 0.049332 0.0511445 0.0529756 0.0543549 0.0557376
0.0571264 0.0585202 0.0608914 0.0611585 0.0614258 0.0616933 0.0619609 0.0622287 0.064102 0.0659785
0.0678582 0.069741 0.0716257 0.0735203 0.075407 0.0772951 0.0791846 0.081075 0.0848705 0.0886661
0.0924676 0.096275 0.100099 0.107835 0.115578 0.12326 0.130891 0.138537 0.146197 0.153855
0.161512 0.169167 0.176821 0.18448 0.192135 0.199789 0.207441 0.215092 0.222745 0.230396
0.238046 0.245695 0.253342 0.260993 0.268641 0.276289 0.283935 0.291581 0.29923 0.306876
0.314521 0.322166 0.32981 0.337457 0.345101 0.352745 0.360388 0.36803 0.375675 0.383318
0.39096 0.398601 0.406242 0.413885 0.421526 0.429167 0.436806 0.444446 0.452087 0.459727
0.467366 0.475005 0.482643 0.490283 0.497921 0.505559 0.513196 0.520833 0.528471 0.536108
0.543744 0.55138 0.559016 0 0.0012719 0.00254421 0.00381707 0.00509056 0.00636469 0.010146
0.0139391 0.0177326 0.0215238 0.0253206 0.0257471 0.0261726 0.0265976 0.0270218 0.0273896 0.0288478
0.0303002 0.0317469 0.033188 0.0346273 0.0364717 0.038305 0.0401214 0.0419331 0.0437395 0.0455514
0.0473598 0.0491672 0.0509812 0.0528065 0.0546383 0.0564714 0.0583076 0.0601468 0.0619891 0.0656859