# vtk DataFile Version 2.0
tracks
ASCII
DATASET POLYDATA
POINTS 2590 float
-1.001 -0.05 0.0011 -0.900789 -0.0500215 0.00109731 -0.800577 -0.050043 0.00109463 -0.700366 -0.0500644
0.00109196 -0.600155 -0.0500858 0.00108929 -0.499943 -0.0501071 0.00108663 -0.424945 -0.050111 0.00107894
-0.349947 -0.0501519 0.00106882 -0.274949 -0.0501924 0.0010588 -0.19995 -0.0502325 0.00104887 -0.124952
-0.0502722 0.00103904 -0.0499538 -0.0502817 0.00103928 0.0250446 -0.0502904 0.00104801 0.100043 -0.0502992
0.00105682 0.175041 -0.0503081 0.0010657 0.25004 -0.0503171 0.00107466 0.400037 -0.050311 0.00109074
0.550035 -0.0503091 0.00110497 0.700032 -0.0503072 0.00111938 0.85003 -0.0503052 0.00113398 1.00003
-0.0503032 0.00114876 1.15003 -0.0503138 0.00115597 1.30002 -0.0503195 0.00116044 1.45002 -0.0503251
0.00116494 1.60002 -0.0503308 0.00116945 1.75002 -0.0503365 0.00117398 1.90002 -0.050345 0.00117685
2.05002 -0.0503514 0.00117878 2.20001 -0.0503579 0.00118071 2.35001 -0.0503643 0.00118265 2.50001
-0.0503708 0.00118459 2.65001 -0.0503787 0.00118564 2.80001 -0.0503868 0.00118633 2.95001 -0.0503948
0.00118701 3.10001 -0.0504028 0.0011877 3.25001 -0.0504109 0.00118839 3.40001 -0.0504187 0.00118867
3.55001 -0.0504275 0.00118925 3.70001 -0.0504363 0.00118982 3.85001 -0.0504451 0.00119039 4.00001
-0.0504538 0.00119097 4.15 -0.0504616 0.00119105 4.3 -0.0504711 0.00119171 4.45 -0.0504807
0.00119238 4.6 -0.0504902 0.00119304 4.75 -0.0504998 0.00119371 4.9 -0.0505074 0.00119371
5.05 -0.0505175 0.00119453 5.2 -0.0505275 0.00119536 5.35 -0.0505376 0.00119618 5.5
-0.0505476 0.00119701 5.65 -0.0505551 0.00119697 5.8 -0.0505655 0.00119795 5.95 -0.0505759
0.00119893 6.1 -0.0505862 0.00119991 6.25 -0.0505966 0.0012009 6.4 -0.0506041 0.00120083
6.55 -0.0506146 0.00120195 6.7 -0.0506252 0.00120306 6.85 -0.0506358 0.00120418 7
-0.0506464 0.0012053 7.15 -0.0506538 0.00120522 7.3 -0.0506645 0.00120644 7.45 -0.0506752
0.00120767 7.6 -0.050686 0.0012089 7.75 -0.0506967 0.00121012 7.9 -0.050704 0.00121002
8.05 -0.0507148 0.00121133 8.2 -0.0507257 0.00121265 8.35 -0.0507365 0.00121397 8.5
-0.0507474 0.00121529 8.65 -0.0507546 0.00121518 8.8 -0.0507655 0.00121657 8.95 -0.0507765
0.00121796 9.1 -0.0507874 0.00121936 9.25 -0.0507983 0.00122076 9.4 -0.0508055 0.00122063
9.55 -0.0508624 0.00122273 9.7 -0.0509704 0.00122554 9.85 -0.0511295 0.00122907 10
-0.0513397 0.00123332 -1.001 -0.05 0.0537316 -0.900807 -0.0501057 0.0535765 -0.800614 -0.0502117
0.0533943 -0.700421 -0.050341 0.0531783 -0.600229 -0.0505014 0.0529267 -0.500035 -0.0506925 0.0526397
-0.425004 -0.0509402 0.0524174 -0.349973 -0.051277 0.0521281 -0.274943 -0.0516612 0.0518599 -0.199912
-0.0520789 0.0516339 -0.124879 -0.0524809 0.0514904 -0.0498864 -0.0527466 0.0515275 0.0251065 -0.052966
0.0516933 0.100099 -0.0531805 0.0519276 0.175092 -0.0534042 0.05221 0.250087 -0.0536231 0.0525275
0.400077 -0.0540076 0.0531631 0.550067 -0.0543899 0.0536779 0.700057 -0.054731 0.0541441 0.850047
-0.055031 0.0545612 1.00003 -0.0552977 0.0549287 1.14683 -0.0556648 0.055207 1.29363 -0.0560003
0.0554667 1.44043 -0.0563331 0.0556927 1.58723 -0.0566634 0.055885 1.7046 -0.0569254 0.0560117
1.71368 -0.0569465 0.0560202 1.72277 -0.0569676 0.0560286 1.73185 -0.0569889 0.0560369 1.74093
-0.0570102 0.0560451 1.75002 -0.0570317 0.0560533 1.90002 -0.0573876 0.0561865 2.05002 -0.0577392
0.0563026 2.20001 -0.058087 0.056401 2.35001 -0.058431 0.0564817 2.50001 -0.0587712 0.0565448
2.65001 -0.0591165 0.0565968 2.80001 -0.0594615 0.0566421 2.95001 -0.0598057 0.0566797 3.10001
-0.0601491 0.0567096 3.25001 -0.0604917 0.0567318 3.40001 -0.0608352 0.056749 3.55001 -0.0611801
0.0567655 3.70001 -0.0615235 0.0567799 3.85001 -0.0618655 0.0567923 4.00001 -0.0622059 0.0568026
4.15 -0.0625442 0.0568105 4.3 -0.0628862 0.0568195 4.45 -0.0632268 0.0568277 4.6
-0.0635659 0.0568351 4.75 -0.0639035 0.0568418 4.9 -0.0642363 0.0568462 5.05 -0.0645745
0.0568525 5.2 -0.0649113 0.0568584 5.35 -0.0652467 0.056864 5.5 -0.0655808 0.0568691
5.65 -0.0659081 0.0568717 5.8 -0.0662418 0.0568769 5.95 -0.0665743 0.0568817 6.1
-0.0669056 0.0568864 6.25 -0.0672356 0.0568908 6.4 -0.0675578 0.0568923 6.55 -0.067887
0.0568967 6.7 -0.0682151 0.056901 6.85 -0.0685419 0.0569051 7 -0.0688676 0.0569091
7.15 -0.0691846 0.0569098 7.3 -0.0695092 0.0569139 7.45 -0.0698327 0.0569178 7.6
-0.070155 0.0569216 7.75 -0.0704761 0.0569253 7.9 -0.070788 0.0569255 8.05 -0.0711079
0.0569293 8.2 -0.0714267 0.056933 8.35 -0.0717443 0.0569368 8.5 -0.0720608 0.0569405
8.65 -0.0723677 0.0569406 8.8 -0.0726829 0.0569444 8.95 -0.0729969 0.056948 9.1
-0.0733098 0.0569516 9.25 -0.0736215 0.0569551 9.4 -0.0739232 0.0569547 9.55 -0.0742339
0.0569582 9.7 -0.0745442 0.0569617 9.85 -0.0748539 0.0569652 10 -0.0751631 0.0569687
-1.001 -0.05 0.106363 -0.900818 -0.0500776 0.106138 -0.800636 -0.050153 0.105866 -0.700455
-0.050255 0.105547 -0.600274 -0.0504271 0.105005 -0.50009 -0.0506689 0.104244 -0.424996 -0.0509553
0.10366 -0.349901 -0.051303 0.103055 -0.274807 -0.0516549 0.102519 -0.199711 -0.0519522 0.10209
-0.124607 -0.0522936 0.101989 -0.0496046 -0.0525407 0.102102 0.0253975 -0.0527327 0.102332 0.100399
-0.0529118 0.102645 0.175401 -0.0531113 0.103042 0.250411 -0.0533309 0.103523 0.400346 -0.0537356
0.104523 0.550283 -0.0541389 0.105395 0.70022 -0.0545035 0.106179 0.850157 -0.0548376 0.106796
1.00009 -0.0551409 0.107246 1.15007 -0.0555801 0.107511 1.30006 -0.0558753 0.107808 1.45005
-0.0561197 0.108084 1.60003 -0.0563582 0.108327 1.75002 -0.0565908 0.108538 1.90002 -0.0568975
0.108683 2.05002 -0.0571408 0.108838 2.20001 -0.0573782 0.108977 2.35001 -0.0576131 0.109099
2.50001 -0.0578456 0.109204 2.65001 -0.0581346 0.109273 2.80001 -0.0583815 0.109341 2.95001
-0.0586272 0.109401 3.10001 -0.0588722 0.109454 3.25001 -0.0591165 0.109499 3.40001 -0.0594039
0.109534 3.55001 -0.0596548 0.109567 3.70001 -0.0599037 0.109599 3.85001 -0.0601512 0.109628
4 -0.060397 0.109656 4.15 -0.0606783 0.109682 4.3 -0.0609292 0.109703 4.45
-0.0611782 0.109724 4.6 -0.0614256 0.109744 4.75 -0.0616716 0.109763 4.9 -0.0619464
0.109786 5.05 -0.0621954 0.109801 5.2 -0.0624426 0.109816 5.35 -0.0626885 0.10983
5.5 -0.0629329 0.109845 5.65 -0.0632014 0.109865 5.8 -0.0634477 0.109877 5.95
-0.0636926 0.109887 6.1 -0.0639362 0.109898 6.25 -0.0641786 0.109908 6.4 -0.0644411
0.109928 6.55 -0.0646846 0.109936 6.7 -0.0649267 0.109944 6.85 -0.0651676 0.109951
7 -0.0654073 0.109959 7.15 -0.0656639 0.109977 7.3 -0.0659043 0.109983 7.45
-0.0661434 0.109989 7.6 -0.0663813 0.109994 7.75 -0.066618 0.109999 7.9 -0.066869
0.110017 8.05 -0.0671061 0.110021 8.2 -0.0673419 0.110025 8.35 -0.0675766 0.110028
8.5 -0.0678102 0.110032 8.65 -0.0680557 0.110049 8.8 -0.0682893 0.110052 8.95
-0.0685216 0.110055 9.1 -0.0687527 0.110057 9.25 -0.0689827 0.110059 9.4 -0.0692225
0.110076 9.55 -0.0694528 0.110077 9.7 -0.0696825 0.110078 9.85 -0.0699117 0.110079
10 -0.0701404 0.11008 -1.001 -0.05 0.158995 -0.900796 -0.0500882 0.15877 -0.800593
-0.0501921 0.158424 -0.700392 -0.0503532 0.157688 -0.600196 -0.0505842 0.156477 -0.499992 -0.0508769
0.154639 -0.42472 -0.051483 0.153037 -0.349437 -0.0519492 0.152118 -0.274149 -0.0523445 0.151557
-0.19886 -0.0527376 0.151266 -0.1237 -0.0530531 0.151321 -0.0487805 -0.0531745 0.151485 0.0261373
-0.0532511 0.151966 0.101053 -0.0533889 0.15267 0.175968 -0.0535535 0.153468 0.250944 -0.0537055
0.154296 0.400784 -0.0539136 0.155716 0.550625 -0.0544165 0.156894 0.700468 -0.0548856 0.157648
0.850313 -0.0552813 0.158246 1.00014 -0.0556462 0.158676 1.15012 -0.0561475 0.158922 1.30009
-0.0565045 0.1592 1.45007 -0.0567685 0.159468 1.60005 -0.0569559 0.159722 1.75002 -0.0571375
0.159944 1.90002 -0.0573941 0.160099 2.05002 -0.0575868 0.160265 2.20002 -0.0577674 0.160417
2.35001 -0.0579392 0.160553 2.50001 -0.0581087 0.160673 2.65001 -0.0583351 0.160756 2.80001
-0.0585193 0.160838 2.95001 -0.0587013 0.160914 3.10001 -0.0588816 0.160982 3.25001 -0.0590613
0.161043 3.40001 -0.0592841 0.161093 3.55001 -0.0594705 0.161142 3.70001 -0.0596542 0.161189
3.85001 -0.0598356 0.161235 4 -0.0600155 0.161279 4.15 -0.0602307 0.161322 4.3
-0.0604157 0.16136 4.45 -0.0605981 0.161397 4.6 -0.0607783 0.161434 4.75 -0.0609571
0.16147 4.9 -0.0611644 0.16151 5.05 -0.0613462 0.161542 5.2 -0.0615257 0.161574
5.35 -0.0617034 0.161606 5.5 -0.0618796 0.161637 5.65 -0.0620795 0.161675 5.8
-0.0622577 0.161703 5.95 -0.062434 0.161731 6.1 -0.0626086 0.161759 6.25 -0.0627819
0.161786 6.4 -0.0629749 0.161823 6.55 -0.0631494 0.161848 6.7 -0.0633221 0.161873
6.85 -0.0634933 0.161897 7 -0.0636633 0.161922 7.15 -0.0638497 0.161957 7.3
-0.0640203 0.16198 7.45 -0.0641893 0.162003 7.6 -0.0643569 0.162025 7.75 -0.0645233
0.162047 7.9 -0.0647035 0.162082 8.05 -0.0648703 0.162103 8.2 -0.0650356 0.162123
8.35 -0.0651995 0.162144 8.5 -0.0653623 0.162165 8.65 -0.0655366 0.162199 8.8
-0.0656994 0.162218 8.95 -0.0658606 0.162238 9.1 -0.0660205 0.162257 9.25 -0.0661792
0.162276 9.4 -0.0663473 0.162309 9.55 -0.0665063 0.162327 9.7 -0.0666644 0.162344
9.85 -0.0668218 0.162361 10 -0.0669788 0.162378 -1.001 -0.05 0.211626 -0.947631
-0.0500804 0.211469 -0.894262 -0.0501653 0.211279 -0.840894 -0.0502548 0.211054 -0.787525 -0.0503887
0.210764 -0.724309 -0.050632 0.210285 -0.679433 -0.0509092 0.209635 -0.634561 -0.0512436 0.208757
-0.589692 -0.0515818 0.207742 -0.544827 -0.0519251 0.206589 -0.499928 -0.0522746 0.205296 -0.469404
-0.0525685 0.204243 -0.438881 -0.0528725 0.203126 -0.408354 -0.0531609 0.202136 -0.377823 -0.0534349
0.201269 -0.329495 -0.0538534 0.200029 -0.288556 -0.0541919 0.199124 -0.247613 -0.0545301 0.198437
-0.206666 -0.0548725 0.198061 -0.165717 -0.0551793 0.197972 -0.124885 -0.0554116 0.198145 -0.0496127
-0.0557156 0.198858 0.0256569 -0.0558507 0.199808 0.100922 -0.0559577 0.201089 0.176185 -0.056098
0.202448 0.251487 -0.0562315 0.203602 0.251705 -0.0562318 0.203605 0.251923 -0.0562321 0.203607
0.25214 -0.0562324 0.20361 0.252358 -0.0562328 0.203613 0.252576 -0.0562331 0.203616 0.327115
[...]
POINT_DATA 2590
FIELD attributes 4
age 1 2590 float
0 0.00501121 0.0100224 0.0150336 0.0200448 0.025056 0.0288056 0.0325533 0.036301 0.0400488 0.0437965
0.0475449 0.0512905 0.0550361 0.0587817 0.0625272 0.070024 0.0775229 0.0850219 0.0925208 0.10002
0.10752 0.115019 0.122519 0.130019 0.137519 0.145019 0.152519 0.160019 0.167518 0.175018
0.182518 0.190018 0.197517 0.205017 0.212517 0.220017 0.227516 0.235016 0.242516 0.250015
0.257515 0.265015 0.272515 0.280014 0.287514 0.295014 0.302514 0.310014 0.317513 0.325013
0.332513 0.340013 0.347512 0.355012 0.362512 0.370012 0.377512 0.385011 0.392511 0.400011
0.407511 0.415011 0.42251 0.43001 0.43751 0.44501 0.45251 0.460009 0.467509 0.475009
0.482509 0.490009 0.497508 0.505008 0.512508 0.520008 0.527507 0.535005 0.542503 0.55
0 0.00502601 0.0100533 0.0150746 0.0200878 0.0250929 0.0288319 0.0325651 0.0362916 0.0400112
0.0437246 0.0474308 0.0511301 0.0548275 0.0585249 0.062224 0.0696347 0.0770707 0.0845215 0.0919871
0.0994673 0.106801 0.114137 0.121473 0.128811 0.134679 0.135133 0.135587 0.136041 0.136496
0.13695 0.14445 0.15195 0.15945 0.166948 0.174447 0.181945 0.189442 0.196939 0.204437
0.211933 0.219431 0.226928 0.234425 0.241922 0.249419 0.256917 0.264414 0.271912 0.279409
0.286907 0.294406 0.301903 0.309401 0.3169 0.324398 0.331897 0.339395 0.346894 0.354392
0.361891 0.369391 0.376889 0.384388 0.391887 0.399387 0.406887 0.414386 0.421885 0.429385
0.436885 0.444385 0.451885 0.459385 0.466885 0.474386 0.481887 0.489387 0.496888 0.504388
0.511889 0.519391 0.526892 0.534392 0.541893 0.549394 0 0.005028 0.0100578 0.0150818
0.0200993 0.0251104 0.0288574 0.0325974 0.0363281 0.040054 0.0437701 0.0474748 0.0511738 0.0548716
0.0585685 0.062265 0.0696633 0.0770888 0.0845323 0.0919978 0.0994851 0.106988 0.114493 0.122
0.129508 0.137018 0.144533 0.152042 0.15955 0.167058 0.174565 0.182078 0.189583 0.197089
0.204594 0.212099 0.219611 0.227116 0.234621 0.242126 0.249631 0.257143 0.264649 0.272154
0.27966 0.287165 0.294678 0.302184 0.30969 0.317196 0.324702 0.332215 0.339721 0.347227
0.354734 0.36224 0.369754 0.37726 0.384767 0.392274 0.39978 0.407294 0.414801 0.422308
0.429815 0.437323 0.444837 0.452345 0.459852 0.467359 0.474867 0.482382 0.48989 0.497398
0.504906 0.512414 0.519929 0.527437 0.534946 0.542454 0.549962 0 0.0050301 0.0100662
0.0150995 0.0201269 0.0251494 0.0289151 0.032669 0.0364109 0.0401425 0.0438573 0.0475523 0.0512418
0.0549303 0.058618 0.0623092 0.0696963 0.0771196 0.0845736 0.092044 0.0995357 0.107048 0.114561
0.122079 0.129602 0.137125 0.144655 0.152178 0.159701 0.167224 0.174746 0.182274 0.189794
0.197315 0.204836 0.212356 0.219883 0.227403 0.234923 0.242443 0.249964 0.257491 0.265012
0.272532 0.280053 0.287574 0.295102 0.302623 0.310144 0.317665 0.325186 0.332715 0.340236
0.347758 0.355279 0.362801 0.37033 0.377851 0.385373 0.392895 0.400417 0.407947 0.415469
0.422991 0.430513 0.438036 0.445566 0.453088 0.460611 0.468134 0.475656 0.483187 0.49071
0.498233 0.505756 0.513279 0.52081 0.528333 0.535857 0.54338 0.550904 0 0.00268277
0.00536722 0.00805335 0.0107389 0.0139178 0.016173 0.0184278 0.0206818 0.0229351 0.0251892 0.0267194
0.0282475 0.0297726 0.0312948 0.0336987 0.0357273 0.0377502 0.0397676 0.0417795 0.0437801 0.0474588
0.051139 0.0548203 0.0585082 0.0622089 0.0622196 0.0622303 0.062241 0.0622518 0.0622625 0.0659343
0.069616 0.0733078 0.0770098 0.0807218 0.0813143 0.0819068 0.0824994 0.083092 0.0836701 0.0868268
0.0899861 0.093148 0.0963125 0.099479 0.107 0.114522 0.122048 0.12958 0.137117 0.14466
0.152197 0.159734 0.16727 0.174807 0.182349 0.189885 0.19742 0.204955 0.21249 0.220031
0.227566 0.235101 0.242636 0.250171 0.257713 0.265248 0.272783 0.280318 0.287854 0.295396
0.302932 0.310467 0.318003 0.325539 0.333082 0.340618 0.348154 0.35569 0.363227 0.37077
0.378306 0.385843 0.393379 0.400916 0.40846 0.415997 0.423534 0.431071 0.438608 0.446152
0.45369 0.461227 0.468764 0.476302 0.483847 0.491384 0.498922 0.50646 0.513998 0.521543
0.529081 0.536619 0.544157 0.551696 0 0.00126444 0.00252926 0.00379477 0.00506107 0.0063282
0.0101157 0.0139116 0.017719 0.021533 0.0253295 0.0269128 0.0284859 0.0300521 0.0316111 0.0330058
0.033331 0.0336558 0.0339803 0.0343045 0.0346287 0.0364569 0.038278 0.0400901 0.041897 0.0436945
0.045495 0.0473001 0.0491172 0.0509393 0.0527655 0.0529089 0.0530523 0.0531957 0.0533392 0.0534892
0.0551758 0.0568651 0.0585572 0.0602522 0.0619498 0.0656455 0.0693581 0.0730886 0.07683 0.0805803
0.0843438 0.0881065 0.0918698 0.0956358 0.0994043 0.10694 0.114478 0.12202 0.129566 0.137116
0.144682 0.152235 0.159788 0.16734 0.174893 0.182453 0.190005 0.197557 0.205108 0.212659
0.220218 0.227769 0.23532 0.242871 0.250422 0.257981 0.265532 0.273083 0.280635 0.288186
0.295745 0.303297 0.310849 0.3184 0.325952 0.333512 0.341064 0.348616 0.356168 0.363721
0.37128 0.378833 0.386385 0.393938 0.40149 0.409051 0.416603 0.424156 0.431709 0.439262
0.446822 0.454375 0.461928 0.469482 0.477035 0.484596 0.492149 0.499703 0.507256 0.51481
0.522371 0.529925 0.537478 0.545032 0.552585 0 0.00126545 0.00253141 0.00379789 0.00506488
0.00633241 0.00822679 0.0101236 0.0120228 0.0139249 0.015829 0.0177465 0.0196688 0.0215921 0.0235185
0.0254573 0.0264285 0.0273969 0.028361 0.0293205 0.0302799 0.0307563 0.0312311 0.0317038 0.0321744
0.032689 0.0331435 0.033596 0.0340465 0.034495 0.034941 0.0358512 0.0367583 0.0376613 0.03856
0.0394499 0.040339 0.0412266 0.0421136 0.0430002 0.0438875 0.0452199 0.046559 0.0479049 0.0492542
0.0528817 0.0547105 0.0565529 0.0584068 0.0602672 0.0621284 0.0639996 0.065872 0.0677464 0.0696235
0.0715047 0.0733933 0.0752763 0.0771555 0.0790365 0.0809227 0.0840569 0.0871953 0.0903353 0.0934768
0.0961398 0.096895 0.0976504 0.0984059 0.0991616 0.0999174 0.107511 0.115106 0.122705 0.130309
0.137916 0.145548 0.153155 0.160758 0.16836 0.175962 0.183583 0.191183 0.198781 0.206378
0.213976 0.221593 0.22919 0.236786 0.244383 0.251979 0.259594 0.267191 0.274786 0.282382
0.289979 0.297592 0.305188 0.312783 0.320379 0.327975 0.335587 0.343183 0.350777 0.358373
0.365968 0.373579 0.381174 0.388769 0.396364 0.403959 0.411568 0.419163 0.426757 0.434352
0.441947 0.449554 0.457149 0.464743 0.472337 0.479932 0.487538 0.495133 0.502726 0.51032
0.517914 0.525519 0.533113 0.540706 0.548299 0.555893 0 0.00126279 0.00252625 0.00379075
0.00505643 0.00632329 0.00823332 0.0101453 0.0120611 0.0139803 0.0159047 0.017822 0.0197522 0.0216953
0.0236511 0.0256293 0.0266293 0.0276301 0.0286312 0.0296316 0.0306438 0.0308909 0.031138 0.0313848
0.0316296 0.0318192 0.03257 0.0333084 0.0340336 0.0347452 0.0354487 0.0358957 0.0363411 0.0367849
0.0372273 0.0376636 0.038101 0.0385356 0.0389678 0.0393992 0.0398282 0.0402601 0.0406921 0.0411242
0.0415568 0.0419921 0.0424275 0.0428624 0.0432976 0.0437338 0.0441722 0.045049 0.0459352 0.0468318
0.0477398 0.0486648 0.0493993 0.0501329 0.0508688 0.051608 0.0525164 0.0526838 0.0528512 0.0530187
0.0531864 0.0533542 0.0543082 0.0552607 0.0562154 0.0571734 0.0581333 0.0591022 0.0600704 0.0610396
0.0620117 0.0629857 0.0649548 0.0669189 0.0688777 0.0708408 0.0727868 0.0747185 0.0766655 0.078628
0.080595 0.0825662 0.0865275 0.0904804 0.0944073 0.0983185 0.102233 0.110061 0.117855 0.125579
0.133244 0.140913 0.148612 0.156288 0.16396 0.171627 0.179293 0.186974 0.194638 0.2023
0.209961 0.21762 0.225294 0.232954 0.240611 0.248268 0.255924 0.263594 0.27125 0.278905
0.286559 0.294214 0.30188 0.309534 0.317186 0.324838 0.33249 0.340153 0.347805 0.355456
0.363105 0.370755 0.378415 0.386064 0.393713 0.401361 0.409009 0.416665 0.424313 0.43196
0.439606 0.447252 0.454905 0.462551 0.470196 0.47784 0.485484 0.493135 0.500778 0.508421
0.516063 0.523705 0.531353 0.538994 0.546636 0.554277 0.561917 0 0.00126442 0.00252948
0.00379519 0.00506156 0.00632916 0.00824621 0.0101657 0.0120884 0.0140175 0.0159587 0.0169288 0.0179018
0.0188779 0.0198572 0.0208397 0.0218273 0.0228231 0.0238278 0.0248415 0.0258657 0.0263833 0.0269027
0.0274257 0.0279524 0.0284854 0.0287754 0.0290668 0.0293605 0.0296569 0.0297549 0.0300552 0.0303569
0.0306595 0.0309619 0.0312725 0.0313698 0.031467 0.0315643 0.0316619 0.0317331 0.0317675 0.031802
0.0318364 0.0318708 0.0319037 0.0320672 0.0322306 0.0323939 0.032557 0.0327215 0.0329002 0.0330784
0.0332562 0.0334311 0.0335602 0.033666 0.0337711 0.0338757 0.0339793 0.0340845 0.0341953 0.0343046
0.0344124 0.0345192 0.0346064 0.0346606 0.0347144 0.034768 0.0348213 0.0348734 0.0349711 0.0350683
0.0351651 0.0352615 0.0353557 0.035478 0.0355988 0.0357182 0.0358365 0.0360295 0.0361299 0.0362299
0.0363295 0.0364291 0.0365188 0.0366045 0.0366903 0.0367761 0.0368619 0.0370165 0.0371403 0.0372638
0.0373872 0.0375103 0.0376317 0.0378509 0.0380684 0.0382859 0.0385042 0.0387189 0.0389373 0.0391551
0.0393733 0.0395918 0.0398102 0.0400315 0.0402511 0.0404709 0.040691 0.0409117 0.0411324 0.0413525
0.0415728 0.0417938 0.0420174 0.0422423 0.0424653 0.0426883 0.042912 0.0431366 0.0434774 0.0438198
0.044168 0.0445219 0.0446871 0.0448431 0.0449993 0.0451559 0.0453128 0.0454708 0.0459584 0.0464385
0.0469188 0.0473947 0.0478912 0.0484087 0.0489154 0.0494224 0.0499342 0.0504532 0.050533 0.0506128
0.0506929 0.0507731 0.0508515 0.0518514 0.0528937 0.0539802 0.0550273 0.0560859 0.0572888 0.0584694
0.0596506 0.0608377 0.0620247 0.0624565 0.0628872 0.0633176 0.0637484 0.0642392 0.0650107 0.0657748
0.066535 0.067297 0.0680579 0.0682606 0.0684628 0.068664 0.0688643 0.0690618 0.0700453 0.0710272
0.0720074 0.0729858 0.0739601 0.0751128 0.0762854 0.0774617 0.0786395 0.0798195 0.0813714 0.0829244
0.0844845 0.0860469 0.088096 0.0887402 0.089382 0.0900214 0.0906585 0.091293 0.0957971 0.100277
0.104683 0.108999 0.113184 0.121355 0.129462 0.137497 0.145461 0.153345 0.161105 0.168866
0.176624 0.184379 0.192132 0.19988 0.207629 0.215376 0.22312 0.230863 0.238603 0.246343
0.254081 0.261817 0.269553 0.26979 0.270027 0.270265 0.270502 0.27074 0.278236 0.285732
0.293228 0.300724 0.308221 0.315947 0.32368 0.331413 0.339147 0.34688 0.354599 0.362332
0.370065 0.377798 0.385531 0.393244 0.400976 0.408708 0.41644 0.424173 0.431879 0.439611
0.447342 0.455074 0.462805 0.470506 0.478236 0.485967 0.493697 0.501428 0.509123 0.516853
0.524582 0.532311 0.54004 0.547729 0.555456 0.563183 0.570911 0.578638 0 0.00125411
0.00250916 0.00376553 0.00502335 0.00628272 0.00821403 0.010148 0.0120848 0.0140287 0.0159868 0.0169595
0.0179361 0.0189167 0.0199014 0.0208902 0.0218847 0.0228899 0.0239068 0.0249355 0.0259772 0.0265058
0.0270376 0.0275762 0.0281216 0.0286758 0.0292413 0.0298146 0.0304008 0.031001 0.0316278 0.0319467
0.0322655 0.032585 0.0329056 0.0332406 0.0333113 0.033382 0.0334527 0.0335234 0.0335812 0.0336583
0.0337339 0.0338086 0.0338827 0.033945 0.0341163 0.0342843 0.034449 0.0346103 0.034777 0.0349196
0.0350596 0.0351969 0.035331 0.0354503 0.0355705 0.0356902 0.0358093 0.0359269 0.0360386 0.036156
0.0362703 0.0363817 0.0364925 0.0366391 0.036746 0.0368527 0.0369592 0.0370655 0.0371631 0.0373585
0.0375541 0.0377529 0.0379547 0.0383855 0.0386188 0.0388526 0.0390843 0.0393141 0.0395394 0.0400025
0.0404599 0.0409139 0.0413649 0.0418113 0.0422682 0.0427113 0.0431577 0.0436071 0.0440596 0.0445336
0.0450015 0.0454812 0.0459657 0.0464581 0.0473042 0.0481697 0.0490487 0.0499148 0.0518066 0.0529321
0.0540588 0.0552094 0.05638 0.0575846 0.0588469 0.0600819 0.0613005 0.0625286 0.0637616 0.0646197
0.0654665 0.0663127 0.0671541 0.0682207 0.0685722 0.0689238 0.0692757 0.069628 0.0699807 0.0706744
0.0713684 0.0720635 0.0727597 0.0735943 0.0741185 0.0746426 0.0751663 0.0756888 0.0762088 0.0774534
0.078702 0.0799583 0.081215 0.0824714 0.0849655 0.0874636 0.0899304 0.0923542 0.0947508 0.0995875
0.104375 0.109023 0.113534 0.117893 0.121408 0.12491 0.1284 0.131877 0.136156 0.140805
0.145397 0.149933 0.154414 0.158839 0.166599 0.174369 0.182136 0.189903 0.197668 0.205413
0.213176 0.22094 0.228703 0.236465 0.244199 0.25196 0.259721 0.267481 0.275242 0.282967
0.290727 0.298487 0.306246 0.314006 0.321724 0.329483 0.337241 0.345 0.352759 0.36047
0.368228 0.375985 0.383743 0.391501 0.399206 0.406962 0.414718 0.422474 0.430231 0.43793
0.445684 0.453439 0.461194 0.468949 0.476642 0.484395 0.492148 0.499901 0.507655 0.515343
0.523095 0.530846 0.538597 0.546348 0.554031 0.561779 0.569527 0.577275 0.585024 0
0.00125903 0.00251874 0.00377913 0.00504094 0.0063044 0.00823308 0.0101647 0.0120993 0.0140412 0.0159973
0.0169702 0.0179472 0.0189283 0.0199135 0.0209031 0.0218976 0.0229027 0.0239194 0.0249479 0.0259894
0.0265184 0.0270503 0.027588 0.0281323 0.028686 0.0292489 0.0298195 0.0303997 0.0309924 0.0316147
0.0319308 0.0322476 0.0325648 0.032882 0.0332117 0.0334498 0.0336864 0.0339211 0.0341497 0.0342464
0.03435 0.0344526 0.034554 0.0346543 0.0347573 0.0349586 0.0351531 0.035341 0.0355229 0.0356776
0.0357556 0.0358333 0.0359103 0.0359866 0.0360647 0.0360661 0.0360676 0.036069 0.0360704 0.0360719
0.0362161 0.0363589 0.0365004 0.0366405 0.0368458 0.0369216 0.0369974 0.037073 0.0371485 0.0372202
0.0376781 0.0381412 0.0386178 0.0391023 0.0395168 0.0399787 0.0404298 0.0408796 0.0413316 0.0417919
0.0422684 0.042735 0.0431982 0.0436638 0.0441391 0.0446322 0.0451157 0.0455935 0.0460767 0.0465737
0.0476083 0.0486652 0.0497337 0.0508216 0.0515709 0.051646 0.051721 0.0517959 0.0518708 0.0519456
0.053075 0.0542291 0.0554104 0.056615 0.0578401 0.0591148 0.0603658 0.0615965 0.0628435 0.0640843
0.0647084 0.0653216 0.0659322 0.0665414 0.067154 0.0677807 0.0683976 0.069005 0.0696143 0.0702294
0.0714809 0.0727424 0.0740008 0.0752543 0.0764974 0.0772293 0.0779543 0.0786806 0.0794086 0.0802194
0.0807121 0.081205 0.0816983 0.0821929 0.082676 0.082694 0.0827121 0.0827301 0.0827482 0.0827662
0.0852784 0.0877754 0.0902576 0.0926807 0.0950744 0.0998389 0.104553 0.109156 0.113649 0.117998
0.124848 0.131611 0.138258 0.144792 0.159269 0.162554 0.165838 0.169121 0.172404 0.175747
0.180201 0.184654 0.189107 0.193559 0.198011 0.20575 0.213494 0.221237 0.22898 0.236722
0.244451 0.252192 0.259933 0.267674 0.275415 0.283136 0.290876 0.298616 0.306357 0.314097
0.32181 0.32955 0.337289 0.345029 0.352769 0.360476 0.368214 0.375953 0.383692 0.391431
0.399132 0.40687 0.414608 0.422346 0.430084 0.437779 0.445515 0.453252 0.460989 0.468726
0.476416 0.484151 0.491886 0.499621 0.507357 0.515042 0.522776 0.53051 0.538243 0.545977
0.553657 0.561387 0.569119 0.57685 0.584582 0 0.00127992 0.00256048 0.0038423 0.00512559
0.00641038 0.00831681 0.0102258 0.0121375 0.0140556 0.0159859 0.016958 0.0179331 0.0189115 0.0198934
0.0208788 0.021873 0.0228762 0.0238893 0.0249122 0.0259474 0.0263899 0.026834 0.0272815 0.0277325
0.0278561 0.0280051 0.0281544 0.0283037 0.0284531 0.0286029 0.0291463 0.0296939 0.0302488 0.0308125
0.0313971 0.0314722 0.0315473 0.0316223 0.0316973 0.0317625 0.0319797 0.0321969 0.0324139 0.0326308
0.0328512 0.0329312 0.0330111 0.0330909 0.0331705 0.0332394 0.0334503 0.0336604 0.0338694 0.0340751
0.0342872 0.0343496 0.0344115 0.0344731 0.0345342 0.0345873 0.0345926 0.034598 0.0346034 0.0346087
0.034614 0.0348293 0.03504 0.0352462 0.0354451 0.0356354 0.0356572 0.0356789 0.0357006 0.0357222
0.0357443 0.0358461 0.0359469 0.0360467 0.0361478 0.0362922 0.0363859 0.036479 0.0365715 0.036663
0.0367521 0.0368562 0.0369595 0.0370623 0.0371653 0.037314 0.0374129 0.0375115 0.0376102 0.0377097
0.0378068 0.0380187 0.0382287 0.0384382 0.038647 0.0388592 0.0390792 0.0392947 0.0395059 0.0397172
0.0399312 0.0401474 0.0403619 0.0405754 0.0407895 0.0410062 0.0412274 0.0414451 0.0416614 0.041878
0.0420957 0.0423146 0.042532 0.0427492 0.0429668 0.0431858 0.0436312 0.0440768 0.0445256 0.0449779
0.0454383 0.0459174 0.0463843 0.0468433 0.0473052 0.0477807 0.0482637 0.0487447 0.0492256 0.0497104
0.0502031 0.0512202 0.0522429 0.0532773 0.0543654 0.0554707 0.0558287 0.0561872 0.0565466 0.0569077
0.0572885 0.0580863 0.0588836 0.0596804 0.060481 0.0612897 0.0624897 0.0636654 0.0648477 0.0660451
0.0672376 0.0684646 0.0696674 0.0708476 0.0720214 0.0731874 0.0736444 0.0741007 0.0745574 0.0750145
0.0754628 0.0757813 0.0760999 0.0764186 0.0767376 0.077065 0.0774624 0.07786 0.078258 0.0786562
0.0790547 0.0814005 0.0837481 0.086095 0.0884118 0.090701 0.095211 0.0997734 0.104243 0.108568
0.112786 0.121096 0.129376 0.137594 0.14564 0.153516 0.161257 0.168998 0.176736 0.184471
0.192202 0.19993 0.207657 0.215383 0.223107 0.230829 0.23764 0.244451 0.25126 0.258069
0.264888 0.265793 0.266699 0.267605 0.268511 0.269416 0.27713 0.284845 0.292559 0.300274
0.307989 0.315695 0.32341 0.331124 0.338839 0.346553 0.354254 0.361968 0.369682 0.377396
0.38511 0.392805 0.400518 0.408232 0.415945 0.423659 0.431349 0.439061 0.446774 0.454487
0.4622 0.469884 0.477596 0.485308 0.49302 0.500732 0.508411 0.516122 0.523833 0.531544
0.539254 0.546929 0.554637 0.562346 0.570055 0.577765 0 0.00127753 0.00255577 0.00383512
0.00511576 0.00639768 0.00829926 0.0102028 0.0121091 0.0140204 0.0159397 0.0169038 0.0178699 0.0188378
0.0198081 0.0207805 0.0217543 0.0227331 0.0237171 0.0247057 0.0256981 0.0266889 0.027686 0.0286913
0.0296919 0.0307004 0.0307756 0.0308509 0.0309261 0.0310011 0.0310705 0.0319928 0.0328956 0.0337779
0.034639 0.0354976 0.0359456 0.0363912 0.0368349 0.0372774 0.0377145 0.0381531 0.0385892 0.0390244
0.039459 0.0398878 0.0403209 0.0407541 0.0411876 0.0416215 0.0420559 0.0424921 0.0429272 0.0433632
0.0438001 0.0442389 0.045117 0.0460037 0.0468968 0.0477976 0.0487233 0.0496704 0.0506099 0.0515428
0.0524825 0.0534317 0.0541632 0.0549 0.0556391 0.05638 0.0575181 0.0576717 0.0578255 0.0579794
0.0581334 0.0582874 0.0592713 0.0602547 0.0612384 0.0622219 0.0632042 0.0652045 0.0671916 0.0691682
0.0711542 0.073138 0.0750967 0.0770817 0.0790816 0.0810853 0.0830909 0.0871035 0.0911333 0.0951312
0.0990838 0.103031 0.105911 0.108796 0.111689 0.114575 0.117976 0.122916 0.127827 0.132712
0.137571 0.142402 0.150112 0.157825 0.165535 0.173243 0.180948 0.188642 0.196342 0.204042
0.21174 0.219436 0.227123 0.234816 0.242509 0.2502 0.25789 0.265572 0.27326 0.280947
0.288633 0.296318 0.303997 0.31168 0.319362 0.327043 0.334724 0.342399 0.350078 0.357756
0.365433 0.373109 0.380781 0.388456 0.39613 0.403803 0.411475 0.419144 0.426815 0.434485
0.442154 0.449823 0.457489 0.465156 0.472823 0.480489 0.488154 0.495818 0.503482 0.511145
0.518807 0.526469 0.534129 0.541789 0.549449 0.557108 0.564768 0 0.00127409 0.0025488
0.00382396 0.00510035 0.00637797 0.00827387 0.0101719 0.0120722 0.0139756 0.015883 0.0177923 0.0197069
0.0216263 0.0235504 0.0254824 0.0264533 0.0274212 0.0283841 0.0293421 0.0299603 0.0309786 0.0319892
0.0329893 0.0339793 0.0349575 0.0358665 0.0367721 0.0376736 0.0385722 0.0394618 0.0403524 0.0412415
0.0421296 0.0430166 0.043903 0.0456802 0.0474747 0.0492837 0.0511024 0.0529376 0.0538049 0.0546735
0.0555443 0.0564171 0.0577737 0.0586588 0.0595457 0.0604344 0.0613248 0.0622167 0.0640923 0.0659708
0.067852 0.0697359 0.0716218 0.0735173 0.075405 0.0772937 0.0791838 0.081075 0.084871 0.0886662
0.092466 0.0962702 0.100088 0.107787 0.115489 0.123146 0.130765 0.1384 0.146049 0.153695
0.16134 0.168983 0.176625 0.184271 0.191914 0.199555 0.207195 0.214833 0.222474 0.230112
0.23775 0.245386 0.253021 0.260659 0.268295 0.27593 0.283563 0.291196 0.298832 0.306465
0.314098 0.321729 0.32936 0.336993 0.344624 0.352255 0.359884 0.367513 0.375144 0.382773
0.390401 0.398028 0.405655 0.413284 0.420911 0.428537 0.436162 0.443787 0.451414 0.459039
0.466663 0.474286 0.481909 0.489534 0.497157 0.504779 0.512401 0.520022 0.527644 0.535265
0.542885 0.550505 0.558124 0 0.00127142 0.00254321 0.00381554 0.00508846 0.00636199 0.0101414
0.0139323 0.0177224 0.0215092 0.0252998 0.0257903 0.0262797 0.0267681 0.0272557 0.0276849 0.0290748
0.0304595 0.0318389 0.0332133 0.0345851 0.0364263 0.0382579 0.0400727 0.0418834 0.043689 0.0455003
0.0473089 0.0491189 0.0509376 0.0527676 0.0546038 0.0564415 0.058282 0.0601253 0.0619712 0.0656733
0.0693894 0.0731213 0.0768683 0.0806189 0.0843894 0.0881579 0.0919267 0.0956976 0.0994708 0.107
0.114529 0.122062 0.129611 0.137174 0.144752 0.152328 0.159905 0.167483 0.175059 0.18264