# vtk DataFile Version 2.0
sampleSurface
ASCII
DATASET POLYDATA
POINTS 2021 float
-0.500032 0 0.11501 -0.499951 3.38813e-21 0.0392727 -0.789037 8.47033e-21 0.120673 -0.500013 -1.35525e-20
0.193965 1.00003 0 0.0485099 1.00003 0 0.0478584 0.475202 0 0.0353615
0.250044 1.41878e-20 0.0305359 0.2506 -5.42101e-20 0.117067 0.251301 0 0.203885 0.364989
0 0.203772 1.75002 0 0.113255 1.75002 0 0.0564279 2.50001 6.89146e-18
0.059229 2.21354 0 0.250758 2.50001 0 0.252875 3.25001 -3.47927e-17 0.0598775
3.25001 -1.69407e-21 0.253888 4.00001 5.60566e-18 0.0599857 4 0 0.253986 4.75
-1.79088e-17 0.0599988 4.75 8.47033e-22 0.253998 5.5 -2.79246e-17 0.0599999 5.5 -4.23516e-22
0.253999 6.25 1.01187e-17 0.06 6.25 0 0.254 7 2.93732e-17 0.06
7 0 0.254 7.75 -2.65294e-17 0.06 7.75 0 0.254 8.5
1.8923e-17 0.06 8.5 0 0.254 9.25 -2.88552e-17 0.06 9.25 -5.29396e-23
0.254 10 -2.64698e-23 0.254 10 0 0.06 -4.24997 0 0.0599042
-5 0 0.0599861 -5 0 0.253986 -4.24997 0 0.253912 -3.49995
0 0.0593815 -3.49994 0 0.253441 -2.74993 0 0.0570188 -2.74991 0
0.251316 -1.99991 0 0.0492276 -1.99987 0 0.242776 -1.24992 -1.69407e-21 0.03
-1.24985 1.23328e-17 0.222327 -1.24989 3.38813e-21 0.125756 -0.874924 2.08116e-17 0.03 -0.874929
0 0.122356 -0.124951 -8.47033e-22 0.03 -0.499941 0 0.03 -0.124922 -8.47033e-22
0.0385291 1.00021 0 0.231242 0.625368 0 0.203537 0.25004 -2.11758e-22 0.03
1.75003 0 0.247334 1.92873 1.69407e-21 0.441438 2.50001 0 0.447397 3.25
-1.69407e-21 0.447898 4 0 0.447986 4.75 0 0.447997 5.5 -4.23516e-22
0.447999 6.25 4.23516e-22 0.447999 7 0 0.448 7.75 -1.05879e-22 0.448
8.5 0 0.448 9.25 0 0.448 10 -2.64698e-23 0.448 -5
-8.47033e-22 0.447985 -4.24997 0 0.447919 -3.49993 0 0.4475 -2.74988 0
0.445609 -1.9998 6.77626e-21 0.437758 -1.24969 1.61411e-17 0.417681 -1.24976 -6.77626e-21 0.31973
-0.875161 7.70461e-18 0.216228 -0.875403 0 0.312476 -0.499924 -8.74138e-19 0.250039 -0.312433
0 0.250037 -0.312436 0 0.200025 -0.499924 0 0.200026 0.250062 3.38813e-21
0.24921 0.250039 -1.69407e-21 0.250046 0.250032 0 0.300069 0.437526 3.05948e-18 0.300066
0.625026 0 0.30005 1.00072 -8.23994e-18 0.326497 1.00196 0 0.423 1.75013
0 0.439575 1.75013 1.77877e-20 0.448245 1.00135 0 0.537141 1.00002 0
0.61834 1.74999 2.71051e-20 0.633055 2.49999 -3.38813e-21 0.641448 3.25 0 0.641907
4 -1.69407e-21 0.641985 4.75 -8.47033e-22 0.641996 5.5 -4.23516e-22 0.641998 6.25
0 0.641999 7 0 0.641999 7.75 0 0.642 8.5 5.29396e-23
0.642 9.25 -5.29396e-23 0.642 10 0 0.642 -5 0 0.641985
-4.24997 -1.69407e-21 0.641926 -3.49993 0 0.641557 -2.74988 0 0.639897 -1.99989
6.77626e-21 0.63382 -1.25099 2.55465e-18 0.614606 -1.25 -2.71051e-20 0.515981 -0.878244 0
0.50789 -0.875961 2.71051e-20 0.459694 -0.875609 0 0.410432 -0.498432 0 0.400603
-0.498071 -1.70762e-18 0.413126 -0.450805 0 0.413349 -0.45095 0 0.400955 0.250009
1.89735e-19 0.412703 0.25 2.71051e-20 0.425212 0.296872 1.00289e-18 0.425187 0.343754 -2.71051e-20
0.425153 0.343763 0 0.400146 0.250006 0 0.400175 1.00162 1.41488e-17 0.520353
-2 4.23516e-22 0.820145 -2.09502 -2.11758e-22 0.830091 -2 0 0.829497 -1.25123
0 0.813251 -1.25126 0 0.713737 -1.25101 6.77626e-21 0.62198 1.00059 0
0.714169 1.00094 0 0.809205 1.75018 0 0.82775 2.5 0 0.835521
3.25 0 0.835917 4 -1.69407e-21 0.835986 4.75 -8.47033e-22 0.835996 5.5
0 0.835998 6.25 0 0.835999 7 0 0.835999 7.75 0
0.836 8.5 0 0.836 9.25 0 0.836 10 0 0.836
-5 -8.47033e-22 0.835986 -4.24997 0 0.835935 -3.49995 0 0.835616 -2.74991
0 0.83419 -0.970118 0 0.703382 -0.87455 0 0.699864 -0.874264 -2.71051e-20
0.649852 -0.874033 -2.71051e-20 0.599873 -0.49698 0 0.599585 -0.497345 -9.21572e-19 0.612046
-0.450014 0 0.611892 -0.44938 2.71051e-20 0.599454 -2.00002 0 0.84097 -1.84639
-3.38813e-21 1.02215 -1.25185 0 1.01276 -0.896512 -3.38813e-21 0.900668 -0.908183 6.77626e-21
0.801076 -0.904022 -1.86347e-20 1.00093 0.624925 0 0.799916 0.249931 0 0.799891
0.249978 0 0.899916 0.249997 0 0.999939 0.999987 0 0.999957 1.75061
-2.1684e-19 1.02409 2.50003 0 1.0296 3.25 -1.69407e-21 1.02993 4 0
1.02999 4.75 0 1.03 5.5 0 1.03 6.25 2.11758e-22 1.03
7 0 1.03 7.75 0 1.03 8.5 5.29396e-23 1.03 9.25
0 1.03 10 0 1.03 -5 0 1.02999 -4.24998 0
1.02994 -3.49996 -8.47033e-22 1.02968 -2.74996 0 1.02849 -2.00026 0 1.02458
-0.87482 0 0.799893 -0.87491 0 0.899919 -0.49993 0 0.799862 -0.499958
7.6233e-19 0.849889 -0.312476 0 0.849885 -0.312472 0 0.799853 -1.25001 8.04681e-21
1.19601 -0.499979 5.29396e-23 1.10737 -0.731886 2.11758e-22 1.19997 -0.499981 0 1.19997
-0.124987 0 0.999933 -0.477759 -5.29396e-23 0.999933 -0.487556 -1.45584e-22 1.09995 0.250008
0 1.19997 1 0 1.19997 1.7507 0 1.22203 2.50003 -1.35525e-20
1.22368 3.25 0 1.22394 4 0 1.22399 4.75 4.23516e-22 1.224
5.5 0 1.224 6.25 2.11758e-22 1.224 7 0 1.224 7.75
1.05879e-22 1.224 8.5 0 1.224 9.25 0 1.224 10 2.64698e-23
1.224 -5 4.23516e-22 1.22399 -4.24999 -4.23516e-22 1.22395 -3.49998 0 1.22374
-2.75001 0 1.22279 -2.00077 0 1.21965 -1.24997 4.23516e-22 1.19997 -0.499969
-5.29396e-23 0.999933 -0.874942 0 0.999936 -0.499979 -1.32349e-23 1.09995 -2.75001 0
1.36967 -3.18711 4.23516e-22 1.41751 -2.75001 4.23516e-22 1.4171 -2.00072 3.38813e-21 1.29692
-2.00065 0 1.41474 -1.25823 6.35275e-21 1.40014 -0.980416 0 1.39998 -0.499986
0 1.39998 0.250009 0 1.39998 1 0 1.39998 1.75054 0
1.41682 2.50002 -1.35525e-20 1.41776 3.25 0 1.41796 4 4.23516e-22 1.41799
4.75 0 1.418 5.5 0 1.418 6.25 0 1.418 7
0 1.418 7.75 0 1.418 8.5 0 1.418 9.25 0
1.418 10 0 1.418 -5 0 1.41799 -4.24999 0 1.41797
-3.49999 -4.23516e-22 1.41781 -1.24998 0 1.39998 -2.80392 1.32349e-23 1.61143 -2.75
-1.32349e-23 1.6114 -2.0003 0 1.60983 -1.25396 2.64698e-23 1.60004 -1.12789 2.64698e-23
1.59999 -0.49999 1.05879e-22 1.59999 0.250008 0 1.59999 1.00001 4.23516e-22 1.59999
1.75038 0 1.61122 2.50002 0 1.61184 3.25 -4.23516e-22 1.61197 4
-4.23516e-22 1.61199 4.75 0 1.612 5.5 0 1.612 6.25 0
1.612 7 0 1.612 7.75 5.29396e-23 1.612 8.5 2.64698e-23 1.612
9.25 -1.32349e-23 1.612 10 -1.32349e-23 1.612 -5 0 1.61199 -4.24999
0 1.61198 -3.49999 0 1.61187 -1.24999 0 1.59999 -2.75 -1.32349e-23
1.63714 -2.64195 -2.11758e-22 1.80559 -2.00012 -8.47033e-22 1.80492 -1.25741 0 1.80004
-1.19082 -7.94093e-23 1.8 -0.499992 1.05879e-22 1.79999 0.250006 2.11758e-22 1.79999 1
0 1.8 1.75023 0 1.80561 2.50001 3.38813e-21 1.80592 3.25 0
1.80599 4 0 1.806 4.75 2.11758e-22 1.806 5.5 0 1.806
6.25 0 1.806 7 0 1.806 7.75 0 1.806 8.5
2.64698e-23 1.806 9.25 0 1.806 10 0 1.806 -5 0
1.806 -4.25 -2.11758e-22 1.80599 -3.49999 0 1.80594 -2.75 -1.05879e-22 1.8057
-1.24999 0 1.8 -2 -4.76456e-22 1.98532 -1.20969 -1.65436e-23 2 -0.499993
0 2 0.250006 0 2 1 0 2 1.75 0
2 2.5 0 2 3.25 0 2 4 0 2
4.75 -1.05879e-22 2 5.5 0 2 6.25 0 2 7
5.29396e-23 2 7.75 0 2 8.5 0 2 9.25 0
2 10 -1.32349e-23 2 -5 2.21817e-18 2 -4.25 1.05879e-22 2
-3.49999 0 2 -2.74999 0 2 -1.99999 -5.29396e-23 2 -1.24999
3.30872e-24 2 0.0956945 -5.42101e-20 0.203879 0.0632748 0 0.203876 0.0625511 0
0.250042 -0.403589 6.77626e-21 0.40138 -0.405779 7.7927e-19 0.38799 -0.406379 -6.77626e-21 0.375196
-0.499567 -1.35525e-20 0.375265 0.250006 -6.50521e-19 0.375144 0.156247 0 0.375155 0.156237
9.41901e-19 0.400212 0.203129 0 0.400201 0.249796 0 0.59991 0.249852 -1.0842e-19
0.587433 0.202953 0 0.587417 0.202888 6.50521e-19 0.599901 0.625121 -6.77626e-21 0.499953
0.717439 6.77626e-21 0.504955 0.625095 6.77626e-21 0.475379 0.343596 1.0842e-19 0.599918 0.343639
0 0.574939 0.296781 0 0.574964 0.249926 0 0.574977 0.62499 -4.2826e-18
0.549927 0.624917 4.55365e-18 0.599925 0.203133 0 0.412725 -0.449046 0 0.587135
-0.496581 5.42101e-20 0.587161 0.625036 -9.32414e-18 0.40006 0.625067 1.13164e-18 0.450032 0.249704
0 0.624881 0.155871 0 0.599866 0.155839 1.95156e-18 0.624853 0.249886 1.35525e-20
0.749873 0.062411 0 0.749846 0.0624478 -4.26227e-18 0.799869 -0.312472 0 0.749804
-0.499901 -3.38813e-21 0.749824 -0.691227 0 0.30453 -0.499912 3.02221e-18 0.300065 -0.875784
-3.11708e-18 0.361353 -0.592465 -2.71051e-20 0.40036 -0.499854 0 0.350135 -0.687111 1.35525e-20
0.350117 -0.68656 -2.71051e-20 0.40021 0.437526 -1.35525e-20 0.400108 0.437522 6.77626e-21 0.350086
0.250015 -2.51399e-18 0.35011 0.625027 3.38813e-21 0.350064 -0.592287 0 0.425286 -0.498048
0 0.425444 -0.873902 5.42101e-18 0.54992 -0.496663 0 0.574746 -0.591532 0
0.574798 -0.591729 0 0.599734 -0.149108 0 0.406489 -0.149477 -5.29396e-23 0.403592
-0.149678 0 0.406489 -0.451876 -2.1684e-18 0.499977 -0.451579 0 0.487563 -0.498366
0 0.487552 -0.498515 -1.0842e-19 0.499993 0.437553 0 0.450075 0.437532 -6.07153e-18
0.425113 0.254621 -1.25361e-19 0.496697 0.26485 -5.42101e-20 0.498023 0.264831 0 0.496529
0.254636 -2.30393e-19 0.49668 0.570241 0 0.499932 0.437665 -2.71051e-20 0.474991 0.437859
-2.71051e-20 0.49988 0.437372 -1.0842e-19 0.599915 0.249722 3.25261e-19 0.649874 0.43732 -5.42101e-20
0.649899 0.624872 0 0.649914 0.624883 -3.95734e-18 0.699913 0.43734 6.83047e-18 0.699894
0.249817 0 0.699869 -0.592227 0 0.624743 -0.498071 -2.71051e-20 0.624658 -0.499769
6.77626e-21 0.69979 -0.687025 0 0.699824 -0.150854 -1.03677e-18 0.599678 -0.151059 -6.77626e-21
0.605522 -0.127339 6.77626e-21 0.605681 -0.127867 0 0.599582 -0.406139 -4.40457e-20 0.699754
-0.406113 0 0.674749 -0.499634 0 0.674774 -0.18433 -4.23516e-22 0.674527 -0.163626
-4.23516e-22 0.678958 -0.165125 0 0.674537 -0.171868 4.23516e-22 0.674524 -0.14924 3.34737e-19
0.400169 -0.125737 0 0.400165 -0.12551 0 0.393854 -0.149076 -2.11758e-22 0.393877
-0.499925 -2.61564e-18 0.325088 -0.406241 0 0.325087 -0.4062 0 0.300069 -0.124901
0 0.300062 -0.218633 -3.27294e-18 0.299673 -0.218596 1.35525e-20 0.324664 -0.124851 0
0.325085 -0.126061 7.86047e-19 0.406473 -0.0785222 1.30782e-18 0.400166 -0.126118 3.38813e-21 0.41275
-0.0785648 0 0.412729 0.240678 1.0842e-18 0.500153 0.252614 -2.1684e-19 0.498317 0.252386
1.0842e-19 0.496231 0.241035 0 0.496114 0.228892 -1.35525e-20 0.496204 0.228835 6.77626e-21
0.498715 0.229819 2.71051e-20 0.500074 0.25248 0 0.499935 0.240657 -1.6263e-19 0.500957
0.264863 0 0.500154 0.264689 0 0.500951 0.437443 0 0.549896 0.437406
[...]
POINT_DATA 2021
FIELD attributes 2
p 1 2021 float
2.00981 1.43817 2.36993 4.36336 0.0603086 0.0581922 -4.20417 -6.04303 -7.69206 -6.16482 -4.31981
0.496402 0.464236 0.111625 0.326586 0.174732 0.00337294 0.0271079 0.00557996 0.0144166 0.00971784
0.0156234 0.00492417 0.00998627 0.000235904 0.00453887 -0.00138067 0.00229375 -0.00106727 0.00209881 -0.000460903
0.00211887 0.000572008 0.00333358 0 0 0.614547 0.610093 0.609941 0.614262 0.635427
0.634532 0.705376 0.702246 0.927392 0.924106 1.64153 1.76312 1.77836 2.23632 2.47677
-4.05697 1.36813 -4.10979 0.653004 -0.107903 -6.0328 0.572268 0.442692 0.189705 0.029185
0.00729004 0.00946259 0.00563654 0.00105317 -0.000644088 -0.000313272 -0.000433966 0.00264444 0 0.609509
0.613493 0.63212 0.693216 0.903012 1.95702 2.02979 3.12857 3.87317 7.32521 -3.29833
-1.05095 4.58346 -5.7294 -5.72153 -2.26211 0.34261 0.830322 1.03379 0.928881 0.521774
0.517586 0.848241 0.880933 0.428158 0.167424 0.0230725 0.00234707 0.00655376 0.00442033 0.000470823
-0.000962443 -0.000439928 -0.000285507 0.00284712 0 0.60882 0.612304 0.628486 0.680534 0.86259
1.85097 2.13677 5.13525 5.58928 4.82662 32.5778 36.4627 52.0332 45.9897 4.77609
4.92832 3.41528 3.44525 2.69873 4.09769 0.84148 0.808558 0.788084 0.805846 1.39743
1.78645 1.8462 0.99377 0.483429 0.350187 0.127787 0.0136199 0.00052761 0.00701924 0.00623543
0.00264407 0.00118465 0.00148588 0.00206609 0.00350398 0 0.607945 0.610824 0.624055 0.665662
3.25309 3.75166 4.6837 4.76153 34.3632 32.7023 44.6289 50.7694 0.802014 0.78177
0.940416 1.70322 2.62812 1.14274 0.0813776 -4.88295 -5.30176 -2.7484 -0.227927 0.19131
0.0733256 -0.00548861 -0.0108415 -0.0008562 0.000982175 -0.00111568 -0.00169138 -0.000813783 0.00030483 0.00128688
0 0.606976 0.609203 0.619229 0.649687 0.740689 2.74772 1.73299 5.19147 3.29463
0.560419 -0.670437 0.698342 0.31176 0.313432 0.143482 -1.70901 0.674452 0.282246 -0.973869
-0.393488 0.0981279 0.0648284 -0.00288781 -0.0108244 -0.000951159 0.00155298 -0.000296315 -0.000859687 -1.3625e-05
0.0010484 0.00156321 0 0.606012 0.607594 0.614384 0.633566 0.677208 0.693103 0.824517
1.15964 0.325248 0.622342 0.613616 0.618717 0.656953 0.62606 0.567102 0.384433 0.0600411
-0.564089 -0.377408 0.0463569 0.0593465 -0.00430594 -0.015065 -0.00430485 -0.000688297 -0.00204285 -0.00235395
-0.00133673 -0.000154211 0.00043416 0 0.60515 0.60614 0.609964 0.566447 0.606946 0.606986
0.590985 0.495963 0.427441 0.0776777 -0.4351 -0.348589 -0.000843269 0.0481118 -0.00786196 -0.0187195
-0.00639546 -0.0016873 -0.00264032 -0.00276639 -0.0016492 -0.000401262 0.000255348 0 0.604472 0.604968
0.606423 0.495457 0.606008 0.595432 0.570669 0.458314 0.427985 0.0869968 -0.36486 -0.33268
-0.0273667 0.0430232 -0.00826446 -0.0198044 -0.00714842 -0.00210245 -0.00295855 -0.00302057 -0.00185606 -0.000581716
0.00011973 0 0.604034 0.604187 0.604082 0.5996 0.457192 0.5644 0.425831 0.0900846
-0.342496 -0.327534 -0.0356607 0.0414924 -0.00836068 -0.0202221 -0.00750688 -0.00233118 -0.003118 -0.00311812
-0.0019106 -0.000616464 0.000105874 7.70778e-05 0.603881 0.603905 0.60324 0.597082 0.563891 0.444897
-10.2854 -11.1434 -11.7928 70.4984 60.0929 43.9055 29.6778 2.92924 1.69493 4.40965
5.07203 4.15795 4.57569 6.20796 5.42073 2.02506 1.73471 2.14144 2.97688 3.68601
3.38307 3.99116 2.24606 1.91439 6.06487 56.2575 39.4504 1.9364 2.26115 3.65105
4.75226 2.16427 -4.53421 -11.2124 -9.84808 -3.18147 8.4688 7.00447 11.9058 4.74997
17.4645 20.824 9.13735 10.5178 2.58523 1.50242 0.99645 1.65787 19.7315 36.9188
5.61349 39.6497 20.332 18.8225 -58.611 -58.3889 -58.6078 68.468 68.3806 47.5663
44.8006 3.41611 3.11781 -4.99064 0.369645 0.219761 -5.04013 2.58793 3.98447 3.94201
2.86782 1.83573 1.76346 1.62805 0.950373 0.762033 -1.36458 17.0085 28.111 13.3007
7.27882 -56.515 -56.3055 -58.7615 -58.681 13.8855 19.1241 18.4902 -46.2683 -42.7151
-44.3936 -45.1274 -58.1304 -57.423 -57.4186 -57.5443 16.6156 15.8915 12.009 -29.3611
-27.9668 -45.3624 -37.0591 -58.7407 -45.9561 -58.5857 -48.0761 10.9823 4.29739 10.5043
11.8401 9.08457 9.35925 9.64688 4.523 11.1048 0.925833 0.758094 3.72477 3.48282
4.06587 4.32234 47.7596 68.3506 -58.8049 -56.4391 6.50894 11.1123 -51.4104 -52.6939
-58.3949 4.49202 6.30122 6.4738 6.5088 -31.4233 -40.0304 -49.4214 -29.7761 64.4141
60.7991 41.6613 41.4099 -44.0401 -55.965 -11.5286 -8.59792 -0.449308 -24.5441 -42.4407
42.9886 44.3158 64.3147 66.4855 -51.774 -49.9388 -50.705 0.31546 -9.69904 -12.7382
-11.7061 -21.6893 -24.8935 -57.8288 44.0447 21.8545 22.1486 11.7035 12.0201 12.194
13.1449 22.0258 44.5097 10.7994 12.4624 11.9026 13.2425 -58.5703 -58.5632 -58.0605
-58.0478 -57.3871 -56.7677 -56.4033 45.8242 66.8364 -58.23 -58.5091 -58.9021 -58.1383
-29.8139 -35.0271 -32.7543 -13.7508 -1.60354 -4.92037 -50.5696 -50.219 -57.9423 -13.1505
0.131387 0.045125 -13.3832 -58.2241 -56.7773 -51.2741 -12.4943 -10.2223 -3.71374 1.55823
-7.38303 -5.60733 -18.6461 -38.3503 -41.4397 -36.3545 -52.1993 -53.2065 -52.9443 -4.12674
-17.5465 -18.2926 -4.74558 -56.0337 -51.9565 -56.0616 -3.56317 -9.28707 -16.5943 -11.6495
67.5376 46.8742 -54.1708 -54.3347 -56.7456 -56.6344 -56.1504 -53.654 -57.0371 -53.1317
-55.9171 -58.8435 -58.9653 -59.0099 -32.0822 -77.0182 -96.0439 -100.991 -103.205 -102.765
-48.5291 -50.1697 -54.1752 -48.2271 -49.8755 -98.0789 -99.3827 -71.2952 -34.3135 -58.3657
-59.1575 -58.8327 -56.217 -57.1057 -57.1533 -57.0812 -57.497 7.13576 6.05477 8.95049
-56.0067 -55.6791 -55.9043 -55.4012 -55.526 -55.7917 -56.1948 -55.0662 -55.051 2.0601
1.84985 0.731415 1.23784 4.20463 4.57505 1.33325 -55.7998 -56.2641 -56.9024 5.81657
6.64584 2.79136 0.893065 3.16056 -32.0952 -38.115 -37.3522 -31.6828 -54.5086 -55.0028
-57.9102 -57.5912 -54.9073 -55.7428 -38.9355 -43.2834 -43.0975 -36.9617 -46.0976 -50.1323
-53.218 -53.3673 -52.2187 123.597 131.456 146.797 146.885 -58.0541 -56.1036 -56.38
-57.7679 -57.5784 4.46155 2.17721 3.09264 4.69393 -9.76495 -3.94581 -5.89447 -8.92495
-11.8099 -39.064 -36.893 -25.6207 -27.3321 -32.1378 -39.082 -24.8427 -24.8975 31.1119
41.2921 52.1327 37.935 23.078 19.3022 34.2717 26.1632 0.672222 0.830496 1.98899
34.0936 24.9122 17.1117 22.212 2.90456 3.84902 4.48919 4.59762 3.69749 6.67672
6.78329 4.59555 -9.34286 -8.22369 -1.37339 -10.2265 14.6896 9.14902 10.8243 -54.6284
-56.8782 -57.0086 -54.8223 -82.634 -81.3535 -84.5925 -47.9028 -12.6599 -18.3146 -27.5519
-55.9397 -52.7889 -55.2948 -56.3452 -73.9279 -73.6343 -58.2162 -59.5146 -49.509 -47.9428
-50.2071 -50.3664 3.76671 3.82787 -0.589276 6.00416 5.65876 4.67235 5.34354 5.74213
6.14774 -54.1127 -53.6451 -68.7493 -67.9608 79.0221 94.1216 85.7233 112.119 106.432
88.8518 90.1639 161.854 164.187 153.368 121.637 98.4158 104.354 97.312 117.65
-12.9068 -26.9643 -31.2768 -5.86999 -26.1453 -52.0378 -41.7244 -6.34474 93.7341 101.232
86.813 78.2814 96.7064 88.4036 107.615 148.47 158.22 167.409 165.146 106.631
102.908 159.638 -32.6622 -8.01079 -38.3338 -28.5542 -47.7268 140.211 140.08 115.604
110.585 110.246 115.51 139.604 138.988 108.136 167.234 170.839 172.009 172.3
173.711 186.649 186.838 174.818 173.27 -32.9982 -40.1037 -32.9548 -56.4043 -50.806
-42.68 -41.9208 -40.6636 -25.5886 2.77372 -2.60337 -0.644203 173.39 175.334 187.19
172.362 186.506 187.15 175.222 172.171 179.599 181.763 170.113 168.881 179.896
167.88 171.097 182.421 -52.5921 -37.8433 -36.5999 -55.6818 -55.7286 -55.8272 -36.397
-46.2352 -36.4939 -36.9507 -45.8398 -45.8083 -3.39768 -9.26511 -25.1467 -25.1875 -32.9337
-43.5654 -32.9711 -32.6688 -42.9884 -21.2302 -18.9083 -20.6664 115.422 140.141 138.126
139.036 114.68 109.308 170.038 169.912 170.48 167.743 136.4 108.398 113.576
137.151 -57.1027 -54.1746 -52.7993 -52.6274 -55.6525 -46.1346 90.185 93.4657 78.73
-14.87 -6.15445 -6.69192 -20.7925 54.5539 56.4161 70.0155 73.6637 -55.7504 -54.9946
-55.3016 -55.7535 -56.9404 -57.1874 -57.3341 -57.4306 -56.0536 -56.1446 -55.716 -55.825
-134.734 -109.211 -77.6691 -95.5945 -97.952 -99.0974 -99.0891 -83.2212 -78.8427 -92.3764
-70.2156 -84.8102 -132.49 -136.197 -128.228 -96.0677 -96.8272 -54.707 -54.1598 -54.8451
-55.9612 -56.2529 -53.7932 -53.7118 6.8118 7.36204 13.7623 16.3958 13.8537 -50.9142
-50.1834 -45.7252 -45.9628 -46.0728 -45.8693 -45.8421 -45.6255 12.9366 12.6711 16.8587
8.27857 8.08067 9.64845 10.1288 10.1546 8.51338 7.32798 8.08806 12.3987 15.698
13.7179 0.771392 -0.862948 -3.05064 7.0409 6.20584 5.08305 6.42268 7.14884 -52.4547
-53.3274 -56.2846 -55.6117 -48.6248 -49.5883 13.6523 15.6262 17.0294 -46.7394 -49.6574
-49.7889 -46.4524 -45.6073 11.3562 11.0993 11.1418 9.56592 6.87079 -6.93763 -5.70059
5.50869 6.30292 6.25601 -48.5014 -48.8275 146.509 148.534 140.956 136.992 113.404
118.348 125.753 121.236 184.609 185.885 182.185 178.427 -55.6198 -55.5547 -52.97
-52.8792 169.639 183.36 185.059 172.997 174.453 186.573 171.031 182.145 169.628
179.281 -16.9215 -19.1984 -23.9483 -28.1951 -26.7998 -22.922 -8.72353 -3.39576 -3.84611
-9.03601 -14.0595 -13.6825 -1.03527 -9.06772 -9.93716 -15.0191 -18.1503 -8.2167 -8.97429
-24.9536 -20.2271 -9.65835 -0.779852 -3.05254 6.0574 -3.49305 6.03992 6.81094 3.38763
3.91563 4.63699 4.19715 7.72418 6.09754 3.96688 5.82422 -18.9113 -15.9872 -26.3247
-21.4518 -56.3169 -58.0173 -58.6185 -58.4998 3.05365 3.12168 5.05438 5.53131 4.30308
4.90158 -14.5567 -40.2971 -57.2247 -65.4375 -53.2531 -31.9021 -58.8064 10.7352 10.1934
10.2167 -2.34828 0.278627 11.9923 17.2351 9.50478 23.6641 20.5508 10.4327 1.73801
6.84708 8.33507 13.1172 11.5546 6.78877 -53.4236 -44.0404 -49.896 -13.0554 -43.8897
-24.9412 -60.6037 -83.7013 108.768 92.8599 106.26 108.447 112.802 111.95 172.885
172.008 173.26 172.575 171.277 185.965 185.966 185.2 -57.8897 -58.1064 174.488
-56.1036 -56.102 -57.0344 -57.1956 -56.9117 -55.727 -149.1 -136.135 -136.015 -132.533
-156.668 -135.916 -132.184 -132.505 -119.248 -114.94 -80.2926 -73.1165 -73.3723 -70.7917
-119.295 -120.929 -56.6777 -55.6815 -54.5788 -57.0508 9.51351 7.15145 10.7092 8.25072
11.0243 12.0548 12.4265 13.4183 14.2047 -55.241 -54.3109 -56.2611 -55.0739 -53.1197
-52.8567 -52.9677 -54.898 -5.91958 -0.437082 -1.37928 -4.55395 9.20442 9.56877 6.82659
5.87952 7.5887 9.56675 8.8147 6.74344 1.30223 8.17236 7.061 6.89553 8.70144
10.4337 9.25419 12.0755 11.3616 -54.6675 -55.092 -55.1777 -55.3037 -55.4542 -55.3053
-54.8057 -52.7876 -54.1082 -54.1168 -54.1319 -51.0856 -52.4724 -73.7865 -73.0124 -57.6315
-59.921 -77.5978 -68.4451 -77.4338 -123.858 -128.44 -136.064 -79.5319 -97.5718 -107.369
-80.3964 -98.9109 128.784 113.626 148.546 151.768 -54.5334 -53.752 -54.8681 -54.8545
-53.0774 143.894 167.878 146.152 -48.9866 -48.1532 -48.5938 -49.3652 -49.1793 -49.1967
-49.1239 -47.6305 -8.08551 -9.37018 -11.9052 -11.0207 -14.8751 -17.0529 -19.1924 -16.9806
-17.9072 74.8238 85.5241 -58.4469 51.2586 76.5467 65.0128 75.6555 61.1148 14.0643
11.246 45.6602 36.6394 8.34889 9.19162 3.65173 5.31378 5.12332 7.79817 6.72719
7.09319 7.47906 8.28484 -52.7684 -52.3273 -52.0444 -52.6322 -0.975318 -0.471104 -1.04284
2.30678 5.71484 5.15782 7.10732 6.54046 -50.9597 -51.3738 -51.096 138.217 136.303
171.19 184.781 189.087 189.373 186.864 185.341 -55.6783 -55.3845 -55.7048 -55.5297
-53.1079 -45.558 -46.3852 -47.0204 -46.2287 -46.5637 -47.8539 -55.9805 -56.005 -56.599
-57.2354 -56.9321 -56.9159 -57.0763 -56.6862 -55.0003 -115.705 -111.361 -134.366 -110.736
-133.801 -122.034 -123.42 -133.208 -56.0813 -57.3981 -55.8529 -54.4795 13.7306 12.3507
11.322 12.5069 12.7506 13.4084 -36.7751 -36.2544 -31.4438 -30.91 -41.7534 -42.2783
-46.4359 -46.049 -51.0802 -51.1283 -45.5226 -52.1297 -51.7683 -6.10932 -0.894398 -11.3572
0.738878 2.16896 8.03475 7.56939 7.89266 4.33783 10.7003 7.37901 8.78517 10.2529
10.895 10.7851 10.9268 12.6887 12.3619 2.43933 12.4186 14.8052 15.9687 3.88184
3.39091 3.12658 3.80713 -58.8768 -58.0351 -52.8575 -56.4625 -44.6497 -44.1311 -40.1021
-44.4577 -45.8567 -49.8983 -51.0871 -49.5536 -49.7691 -49.5353 -47.0673 -52.1649 -47.1748
4.207 -48.2563 -49.5312 141.033 131.848 129.437 129.496 129.876 114.403 106.993
188.663 188.136 187.141 -50.67 -50.9951 -1.30356 -0.731618 0.303699 -29.5925 -30.5203
186.06 186.894 180.372 183.332 181.879 181.508 -33.2259 -29.059 -3.07368 -7.70859
-5.83574 -3.11291 -24.704 -13.5674 -10.1513 -13.3564 -19.7772 -4.58309 80.8803 56.52
60.8537 21.0687 21.4363 68.0166 110.707 10.1486 7.19494 -2.19316 -2.45469 6.84649
7.63844 7.92679 6.13224 6.58031 24.5478 16.3148 -0.387064 19.7794 -1.71348 3.52035
8.17617 8.10091 68.0225 110.211 -54.7137 -55.8028 18.1364 91.7567 109.087 100.41
92.4631 108.077 109.187 126.596 134.335 143.208 -55.7396 81.8459 73.8721 50.7213
12.6135 18.669 16.8403 -75.3548 -56.7597 -56.7532 -56.7565 -55.1659 -55.0816 -59.804
-55.3688 -59.8581 -60.3951 23.3492 -6.48314 5.959 10.5624 10.7925 -1.35469 -1.45798
-2.56174 -55.5838 -54.1166 -0.976855 2.57683 2.883 -57.4738 -56.9106 -56.0648 8.00057
7.68882 4.17619 -56.5632 41.6883 49.9866 -65.9159 -58.2773 17.9481 15.4391 8.99717
6.91979 5.08683 8.52311 6.97108 -54.1305 -54.0927 -52.9161 -52.8413 -55.7895 -52.1953
-51.7182 -54.3051 -54.6165 -54.5985 -54.0781 -55.1968 -54.7683 -54.6194 -54.3565 4.50912
-51.7088 -57.7901 -56.7614 100.541 129.181 144.733 155.199 168.106 162.943 160.755
148.754 188.246 -52.7547 -53.6694 -51.9012 -7.40739 -10.4446 -3.249 -49.6786 -49.7018
-49.6777 -49.9531 -53.1121 -47.2087 -48.7506 -47.5312 -47.0349 -47.7353 28.9087 20.3434
-112.132 -119.729 -119.584 -120.217 -120.559 -73.8075 -96.3771 -73.8107 13.4434 17.0565
-10.835 12.0685 11.512 -5.50804 -7.07952 4.0867 2.47133 0.957293 0.61868 -0.655721
-2.27893 -1.02218 4.12767 4.51469 0.589221 2.83266 4.48917 2.39078 1.30083 13.387
17.6627 -50.0303 5.52891 12.7718 8.53543 16.4683 8.50694 11.1858 14.1912 15.9615
4.79031 5.00766 6.49608 5.91859 -2.01238 -3.91917 -6.15213 -6.05246 4.92053 1.75004
4.4374 9.45271 15.3253 16.5282 8.25323 5.71201 3.11233 2.80269 7.2143 10.663
11.3159 11.9545 11.088 5.7508 -3.43614 5.62652 -2.68598 3.27995 -3.44496 2.52437
10.9878 8.32948 12.3574 6.99841 9.46437 11.3798 10.7818 10.4828 7.94736 8.62172
9.14083 9.38872 7.91968 7.3845 7.392 6.04995 -5.37954 -8.87287 -7.09619 6.5198
5.9227 7.97954 6.29308 -9.07658 -10.8229 1.16536 7.09326 5.93498 -1.57542 5.72247
-136.424 -137.404 -137.635 10.2836 -55.5288 -54.4979 -54.5463 5.26673 9.9255 5.36057
8.42018 11.0308 -55.6881 -55.658 -55.0219 -54.7127 -60.9714 -60.4642 -60.9457 -69.0029
-115.922 -119.716 -113.613 -120.427 -48.9426 -49.4672 -47.4297 -47.1321 -47.3983 -47.1062
-14.6684 -14.6678 -17.0879 -52.5807 -52.3959 -52.1538 5.16174 1.55008 5.01069 4.98241
-51.9537 -52.3902 -52.5127 141.792 151.137 -55.1847 -50.6592 13.4235 13.9726 11.5948
7.23224 11.479 18.7078 4.25349 3.37219 4.70872 3.70726 -53.2505 -57.1045 -56.9282
-55.1593 7.77925 15.0707 11.1162 4.11274 4.26198 10.0769 8.82813 9.51159 8.62529
10.3997 12.4172 10.2605 5.86534 8.58779 8.24013 -54.0944 -50.1253 -48.4956 91.2549
80.2942 84.2509 66.7922 72.7728 -4.7609 -2.8909 0.341702 -1.44191 7.66849 8.17676
7.72234 8.2985 8.06177 7.56076 7.10502 116.851 106.811 94.771 -73.7353 -57.1493
-55.8259 -54.7046 -54.5023 -54.1556 -54.1152 163.485 139.768 161.894 162.004 7.72917
4.60324 10.6855 11.3956 7.24157 8.56957 7.47406 6.93494 6.19213 2.80276 -2.31335
4.80105 5.4377 6.01855 4.38571 6.68405 14.4242 9.05137 -12.6396 15.6172 14.2746
7.65066 10.76 15.9432 9.14264 -12.5479 -13.4621 -11.5418 -2.76324 -4.75636 -12.9808
7.26858 5.34437 -14.556 -16.1525 7.23505 4.89272 -0.9411 -3.77644 -55.0022 -45.8891
13.1434 1.98036 0.322267 -0.0646131 6.03061 5.5931 6.52574 6.1114 6.06741 5.64732
0.369914 6.31065 6.95191 -0.363743 5.76469 4.79088 7.22767 6.72099 6.14851 106.229
86.7033 122.04 123.826 5.22482 4.95492 3.51671 -55.2169 5.15442 6.13262 5.91136
-9.51079 -12.4614 -0.189832 6.30771 6.79686 5.45943 8.14046 5.26267 6.9614 3.94969
37.5671 -53.1751 -55.0236 -54.5419 -54.4871 -54.5629 -2.91117 -4.28194 -12.419 -12.2887
-12.3108 -3.31977 9.43051 3.20379 6.03724 7.09884 2.66483 2.45681 0.197425 -0.758571
-10.7439 -5.10062 -3.99304 -11.1052 -4.04272 -11.9572 5.65597 -11.2156 -12.2468 -2.33979
1.27379 6.41388 6.42777 5.85872 8.88328 0.31521 6.71399 -3.02335 -1.00945 4.40339
-0.689676 7.26804 4.8789 -9.81135 9.03756 -0.555271 6.21678 1.12604 1.50629 4.88895
5.24747 4.32708 5.05173 3.20906 7.69301 8.93102 5.50869 6.11781 1.03014 3.49307
11.1034 5.60832 0.904324 -0.459996 3.68975 173.16 176.982 176.12 181.032 169.132
168.103 172.683 179.952 180.943 69.891 74.0667 55.2946 -56.0683 -41.496 -38.6193
-36.8689 -30.9474 -43.7844 -51.9135 -51.5622 -55.2511 -46.7696 100.8 154.483 162.12
155.261 147.002 -56.533 -56.1296 -56.4692 -56.2379 -55.7488 -56.1977 -54.8311 -55.1339
-54.9761 4.04667 -0.259102 171.245 -18.3553 186.021 190.268 189.415 -51.3019 -47.2922
182.756 185.887 186.063 -16.3938 -51.0986 85.2827 -54.8987 -55.0326 -55.2975 -55.2615
-49.4376 189.389 -2.35231 189.507 185.528 189.101 7.38997 -64.2595 110.688 109.999
-55.817 4.63163 -51.6963 -52.9886 -51.8094 -137.821 138.749 -54.736 159.226 -51.9312
-120.639 -120.557 72.3065 6.9963 2.67486 168.091 164.704 -15.4006 139.853 191.112
190.007 185.41 189.46 190.796 189.791 172.801 191.167 186.787 189.961 191.201
0.614563 0.610099 0.635417 0.704507 0.918358 1.62211 2.20745 -3.98542 1.35519 0.0254454
-4.09926 -5.86884 0.409116 0.0902156 -0.00162371 0.00538587 0.010447 0.00577664 0.00107043 -0.000599396
-0.000346856 0.000200415 0.00112802 0.000611383 -54.1073 -52.387 -133.883 -134.437 -47.9707 -48.4301
-49.0973 -47.8128 -48.3145 -49.0248 -49.6827 -47.318 -94.9347 -74.5902 -48.8141 -47.1621
-74.0285 -48.7385 -51.2176 -51.5737 -50.6878 -99.5724 -111.173 -129.391 -119.714 -119.534

U 3 2021 float
20.0062 -0.0456133 -0.216098 20.0438 -0.0305865 -0.0741147 19.929 -0.00635193 -0.0965453 19.9354 -0.0555476
-0.606995 20.0175 -0.0591303 0.0399787 20.0178 -0.0590259 0.0400119 20.1682 -0.0779478 0.0575528
20.233 -0.086097 0.0655976 20.2786 -0.0910211 0.149477 20.2911 -0.115488 0.264117 20.2099
-0.116811 0.208816 19.9545 -0.0471145 0.0198565 19.9967 -0.054483 0.0183563 20.0037 -0.0527657
0.00697294 19.8531 -0.0245298 0.0176714 19.852 -0.0213166 0.0141337 20.0059 -0.0524781 0.00189282
19.8543 -0.0199145 0.00965763 20.0044 -0.0516672 0.000519469 19.8535 -0.0182795 0.00876612 20.0026
-0.0508489 -8.61322e-06 19.8521 -0.0167389 0.00847 20.0011 -0.0500907 -0.000287185 19.851 -0.0154127
0.00823822 19.9996 -0.0494092 -0.000466716 19.85 -0.0142592 0.00802462 19.998 -0.0487547 -0.000591178
19.8489 -0.0132067 0.00783891 19.9963 -0.0481125 -0.000688654 19.8478 -0.0122509 0.00764196 19.9946
-0.0474835 -0.000724263 19.8468 -0.011374 0.00755413 19.9927 -0.0468326 -0.000815342 19.8457 -0.0104513
0.00727727 19.8453 -0.00997266 0.00697678 19.9924 -0.0466227 -0.000857367 19.9996 -0.000340759 3.12662e-05
20 0 0 20 0 0 19.9996 -0.000340823 7.86073e-05 19.9983
-0.000787104 9.38182e-05 19.9984 -0.000796642 0.000278537 19.9942 -0.00154912 0.000368048 19.9941 -0.00151376
0.00099954 19.9788 -0.00279113 0.000336725 19.9795 -0.00311407 0.00357885 19.9464 -0.0054233 -0.00905549
19.9362 -0.0061785 -0.00795216 19.9389 0.00233102 -0.014318 19.9276 -0.00538885 -0.0295022 19.906
0.00530826 -0.0609985 20.2334 -0.0723922 0.00178468 20.0484 -0.0287472 -0.0567248 20.2355 -0.0714697
0.00504142 19.9272 -0.0888203 0.0304389 20.0246 -0.118075 0.0819061 20.2327 -0.0860657 0.0650779
19.855 -0.0297274 0.0233942 19.3073 0.119683 0.0101543 19.3395 0.117126 0.011269 19.3676
0.111416 0.011324 19.3887 0.107128 0.0120089 19.407 0.103345 0.0125141 19.4239 0.0997611
0.0126906 19.4399 0.0963751 0.0126967 19.4548 0.09319 0.0126258 19.4691 0.0901534 0.0124866
19.4822 0.0872765 0.0123735 19.4969 0.084469 0.012091 19.5057 0.0830283 0.0118301 20
0 0 19.9996 -0.000341394 0.000137225 19.9985 -0.000795002 0.000490116 19.9945 -0.00151956
0.00171889 19.98 -0.00323618 0.00603465 19.9197 -0.00873849 0.0107503 19.9194 -0.00789927 0.00102205
19.8498 -0.0164969 -0.0957423 19.7933 -0.0204259 -0.0681339 19.9549 -0.0505808 -1.02525 20.4347
-0.0668054 -0.936993 20.216 -0.0528833 -0.510149 19.9302 -0.0555602 -0.636507 20.3099 -0.162816
0.453763 20.3103 -0.163694 0.457227 20.0991 -0.248049 0.582069 19.9889 -0.237235 0.300321