# vtk DataFile Version 2.0
tracks
ASCII
DATASET POLYDATA
POINTS 2605 float
-1.001 -0.05 0.0011 -0.900789 -0.0500212 0.00109733 -0.800577 -0.0500423 0.00109466 -0.700366 -0.0500634
0.001092 -0.600155 -0.0500844 0.00108935 -0.499943 -0.0501053 0.00108671 -0.424945 -0.0501091 0.00107909
-0.349947 -0.0501491 0.00106907 -0.274949 -0.0501888 0.00105914 -0.19995 -0.0502281 0.0010493 -0.124952
-0.0502671 0.00103955 -0.0499538 -0.0502762 0.00103979 0.0250446 -0.0502844 0.00104838 0.100043 -0.0502927
0.00105704 0.175041 -0.0503011 0.00106577 0.25004 -0.0503095 0.00107458 0.400037 -0.050303 0.00109042
0.550035 -0.0502999 0.00110446 0.700032 -0.0502967 0.00111868 0.85003 -0.0502935 0.00113309 1.00003
-0.0502902 0.00114768 1.15003 -0.0503003 0.00115484 1.30002 -0.0503048 0.00115918 1.45002 -0.0503094
0.00116353 1.60002 -0.0503139 0.00116789 1.75002 -0.0503184 0.00117227 1.90002 -0.0503265 0.0011751
2.05002 -0.0503318 0.0011769 2.20001 -0.0503372 0.00117869 2.35001 -0.0503426 0.00118049 2.50001
-0.050348 0.00118229 2.65001 -0.0503554 0.00118332 2.80001 -0.0503624 0.0011839 2.95001 -0.0503693
0.00118448 3.10001 -0.0503762 0.00118506 3.25001 -0.0503832 0.00118564 3.40001 -0.0503906 0.0011859
3.55001 -0.0503983 0.00118639 3.70001 -0.050406 0.00118687 3.85001 -0.0504136 0.00118735 4.00001
-0.0504213 0.00118783 4.15 -0.0504286 0.00118788 4.3 -0.0504371 0.00118847 4.45 -0.0504456
0.00118906 4.6 -0.050454 0.00118965 4.75 -0.0504625 0.00119024 4.9 -0.0504697 0.00119022
5.05 -0.0504787 0.00119098 5.2 -0.0504877 0.00119174 5.35 -0.0504966 0.0011925 5.5
-0.0505056 0.00119327 5.65 -0.0505127 0.0011932 5.8 -0.050522 0.00119414 5.95 -0.0505313
0.00119508 6.1 -0.0505406 0.00119602 6.25 -0.0505499 0.00119696 6.4 -0.050557 0.00119687
6.55 -0.0505665 0.00119795 6.7 -0.050576 0.00119904 6.85 -0.0505856 0.00120013 7
-0.0505951 0.00120122 7.15 -0.0506021 0.00120111 7.3 -0.0506118 0.00120231 7.45 -0.0506215
0.00120352 7.6 -0.0506312 0.00120472 7.75 -0.0506409 0.00120593 7.9 -0.0506479 0.00120581
8.05 -0.0506577 0.00120711 8.2 -0.0506675 0.00120841 8.35 -0.0506773 0.00120971 8.5
-0.0506872 0.00121102 8.65 -0.0506941 0.0012109 8.8 -0.050704 0.00121228 8.95 -0.0507139
0.00121366 9.1 -0.0507238 0.00121505 9.25 -0.0507337 0.00121643 9.4 -0.0507405 0.00121631
9.55 -0.050794 0.00121858 9.7 -0.0508957 0.00122177 9.85 -0.0510458 0.00122589 10
-0.0512443 0.00123094 -1.001 -0.05 0.0537316 -0.900807 -0.0501023 0.0535772 -0.800614 -0.0502046
0.0533957 -0.700421 -0.0503294 0.053181 -0.600229 -0.0504839 0.0529312 -0.500035 -0.0506682 0.0526466
-0.425004 -0.050909 0.0524261 -0.349973 -0.0512377 0.052139 -0.274943 -0.0516126 0.051873 -0.199912
-0.0520204 0.0516489 -0.124879 -0.0524125 0.0515063 -0.0498864 -0.0526699 0.0515435 0.0251065 -0.0528805
0.0517062 0.100099 -0.0530859 0.0519363 0.175092 -0.0533003 0.0522142 0.250087 -0.0535101 0.0525269
0.400077 -0.0538773 0.0531548 0.550067 -0.0542401 0.0536655 0.700057 -0.0545619 0.0541282 0.850047
-0.0548427 0.0545423 1.00003 -0.05509 0.0549075 1.14617 -0.0554361 0.0551831 1.2923 -0.0557509
0.0554398 1.43844 -0.0560631 0.0556632 1.58458 -0.0563729 0.0558533 1.70147 -0.0566188 0.0559786
1.71118 -0.0566399 0.0559876 1.72089 -0.0566612 0.0559964 1.7306 -0.0566827 0.0560052 1.74031
-0.0567042 0.0560139 1.75002 -0.0567258 0.0560225 1.90002 -0.0570623 0.0561539 2.05002 -0.057394
0.0562682 2.20001 -0.0577217 0.0563649 2.35001 -0.0580456 0.0564441 2.50001 -0.0583654 0.0565057
2.65001 -0.0586918 0.0565565 2.80001 -0.0590163 0.0566003 2.95001 -0.0593401 0.0566363 3.10001
-0.0596632 0.0566647 3.25001 -0.0599856 0.0566852 3.40001 -0.0603106 0.056701 3.55001 -0.0606355
0.0567158 3.70001 -0.0609591 0.0567285 3.85001 -0.0612815 0.0567392 4.00001 -0.0616026 0.0567478
4.15 -0.0619233 0.0567542 4.3 -0.0622462 0.0567614 4.45 -0.0625679 0.0567679 4.6
-0.0628882 0.0567736 4.75 -0.0632073 0.0567786 4.9 -0.0635233 0.0567814 5.05 -0.063843
0.056786 5.2 -0.0641616 0.0567903 5.35 -0.064479 0.0567942 5.5 -0.0647952 0.0567977
5.65 -0.0651063 0.0567987 5.8 -0.0654224 0.0568023 5.95 -0.0657374 0.0568056 6.1
-0.0660514 0.0568087 6.25 -0.0663642 0.0568116 6.4 -0.0666708 0.0568116 6.55 -0.0669831
0.0568146 6.7 -0.0672943 0.0568175 6.85 -0.0676045 0.0568203 7 -0.0679136 0.056823
7.15 -0.0682156 0.0568224 7.3 -0.0685239 0.0568252 7.45 -0.0688312 0.056828 7.6
-0.0691374 0.0568307 7.75 -0.0694426 0.0568333 7.9 -0.06974 0.0568324 8.05 -0.0700442
0.0568352 8.2 -0.0703473 0.0568381 8.35 -0.0706494 0.0568409 8.5 -0.0709505 0.0568438
8.65 -0.0712434 0.056843 8.8 -0.0715433 0.056846 8.95 -0.0718422 0.056849 9.1
-0.07214 0.056852 9.25 -0.0724367 0.0568549 9.4 -0.0727248 0.0568538 9.55 -0.0730206
0.0568568 9.7 -0.0733159 0.0568598 9.85 -0.0736108 0.0568629 10 -0.0739051 0.0568659
-1.001 -0.05 0.106363 -0.900818 -0.0500744 0.106139 -0.800636 -0.0501462 0.105868 -0.700455
-0.0502438 0.105552 -0.600274 -0.0504098 0.105013 -0.50009 -0.0506442 0.104255 -0.424996 -0.0509234
0.103674 -0.349901 -0.0512627 0.103072 -0.274807 -0.0516058 0.102541 -0.199711 -0.0518948 0.102116
-0.124607 -0.0522268 0.102017 -0.0496045 -0.0524657 0.102131 0.0253977 -0.0526494 0.102359 0.1004
-0.0528202 0.102668 0.175401 -0.0530109 0.10306 0.250411 -0.0532212 0.103535 0.400347 -0.053608
0.104523 0.550283 -0.0539908 0.105388 0.70022 -0.0543349 0.106165 0.850157 -0.0546484 0.106777
1.00009 -0.0549311 0.107225 1.15007 -0.0553496 0.107487 1.30006 -0.0556251 0.10778 1.45005
-0.0558519 0.108053 1.60003 -0.0560727 0.108293 1.75002 -0.0562876 0.1085 1.90002 -0.0565791
0.108644 2.05002 -0.0568038 0.108796 2.20001 -0.0570227 0.108932 2.35001 -0.0572392 0.109051
2.50001 -0.0574532 0.109152 2.65001 -0.057727 0.109221 2.80001 -0.0579549 0.109286 2.95001
-0.0581817 0.109344 3.10001 -0.0584079 0.109394 3.25001 -0.0586335 0.109436 3.40001 -0.0589059
0.10947 3.55001 -0.0591382 0.109501 3.70001 -0.0593688 0.10953 3.85001 -0.059598 0.109556
4 -0.0598259 0.109581 4.15 -0.0600933 0.109606 4.3 -0.0603264 0.109625 4.45
-0.0605578 0.109643 4.6 -0.0607879 0.109661 4.75 -0.0610166 0.109677 4.9 -0.0612781
0.109699 5.05 -0.06151 0.109711 5.2 -0.0617403 0.109724 5.35 -0.0619693 0.109736
5.5 -0.0621971 0.109747 5.65 -0.0624529 0.109767 5.8 -0.0626827 0.109775 5.95
-0.0629113 0.109783 6.1 -0.0631387 0.109791 6.25 -0.0633649 0.109799 6.4 -0.0636153
0.109817 6.55 -0.0638429 0.109823 6.7 -0.0640692 0.109828 6.85 -0.0642944 0.109833
7 -0.0645186 0.109838 7.15 -0.0647636 0.109855 7.3 -0.0649886 0.109858 7.45
-0.0652123 0.109861 7.6 -0.065435 0.109864 7.75 -0.0656567 0.109867 7.9 -0.0658965
0.109884 8.05 -0.0661186 0.109885 8.2 -0.0663396 0.109887 8.35 -0.0665595 0.109888
8.5 -0.0667784 0.10989 8.65 -0.0670132 0.109906 8.8 -0.0672322 0.109907 8.95
-0.06745 0.109907 9.1 -0.0676667 0.109908 9.25 -0.0678823 0.109908 9.4 -0.0681118
0.109924 9.55 -0.0683278 0.109923 9.7 -0.0685432 0.109922 9.85 -0.0687582 0.109921
10 -0.0689726 0.10992 -1.001 -0.05 0.158995 -0.900796 -0.0500849 0.158771 -0.800593
-0.0501849 0.158427 -0.700392 -0.0503409 0.157694 -0.600196 -0.0505656 0.156487 -0.499992 -0.0508506
0.154655 -0.42472 -0.0514484 0.153058 -0.349437 -0.051904 0.152141 -0.274149 -0.0522882 0.151583
-0.19886 -0.0526697 0.151295 -0.1237 -0.0529747 0.151354 -0.0487801 -0.0530892 0.151524 0.0261381
-0.0531576 0.152003 0.101055 -0.0532859 0.152698 0.17597 -0.0534406 0.153485 0.250945 -0.0535831
0.154301 0.400785 -0.0537741 0.155703 0.550625 -0.0542537 0.156868 0.700469 -0.0546988 0.157615
0.850313 -0.0550732 0.158207 1.00014 -0.0554166 0.158634 1.15012 -0.0558964 0.158877 1.30009
-0.0562328 0.159149 1.45007 -0.0564802 0.159414 1.60005 -0.0566543 0.159666 1.75002 -0.0568225
0.159885 1.90002 -0.0570683 0.160039 2.05002 -0.0572469 0.160203 2.20002 -0.0574132 0.160352
2.35001 -0.0575708 0.160487 2.50001 -0.057726 0.160604 2.65001 -0.0579414 0.160688 2.80001
-0.0581109 0.160768 2.95001 -0.058278 0.160842 3.10001 -0.0584436 0.160908 3.25001 -0.0586087
0.160967 3.40001 -0.0588206 0.161017 3.55001 -0.0589925 0.161065 3.70001 -0.0591618 0.161111
3.85001 -0.059329 0.161155 4 -0.059495 0.161197 4.15 -0.0597002 0.161239 4.3
-0.0598714 0.161276 4.45 -0.0600402 0.161311 4.6 -0.0602069 0.161347 4.75 -0.0603724
0.161381 4.9 -0.0605704 0.16142 5.05 -0.060739 0.161451 5.2 -0.0609054 0.161481
5.35 -0.0610701 0.161511 5.5 -0.0612335 0.16154 5.65 -0.0614246 0.161577 5.8
-0.0615902 0.161604 5.95 -0.0617538 0.16163 6.1 -0.0619159 0.161655 6.25 -0.062077
0.161681 6.4 -0.0622616 0.161717 6.55 -0.0624239 0.16174 6.7 -0.0625845 0.161762
6.85 -0.0627437 0.161785 7 -0.0629018 0.161807 7.15 -0.0630802 0.161842 7.3
-0.0632392 0.161863 7.45 -0.0633965 0.161884 7.6 -0.0635525 0.161904 7.75 -0.0637074
0.161924 7.9 -0.06388 0.161958 8.05 -0.0640354 0.161977 8.2 -0.0641894 0.161996
8.35 -0.0643421 0.162014 8.5 -0.0644937 0.162033 8.65 -0.0646607 0.162067 8.8
-0.0648125 0.162085 8.95 -0.0649627 0.162102 9.1 -0.0651116 0.162119 9.25 -0.0652594
0.162137 9.4 -0.0654205 0.162169 9.55 -0.0655687 0.162186 9.7 -0.065716 0.162202
9.85 -0.0658626 0.162217 10 -0.0660088 0.162233 -1.001 -0.05 0.211626 -0.947643
-0.0500783 0.21147 -0.894285 -0.050161 0.21128 -0.840928 -0.050248 0.211056 -0.787571 -0.0503792
0.210767 -0.724411 -0.0506183 0.210291 -0.679515 -0.0508918 0.209642 -0.634622 -0.0512221 0.208766
-0.589733 -0.0515559 0.207753 -0.544847 -0.0518944 0.206603 -0.499928 -0.052239 0.205313 -0.469231
-0.0525308 0.204256 -0.438536 -0.0528325 0.203136 -0.407836 -0.053118 0.202144 -0.377133 -0.0533888
0.201275 -0.328365 -0.053803 0.200029 -0.287653 -0.0541322 0.199135 -0.246936 -0.0544612 0.198461
-0.206215 -0.054794 0.198094 -0.165493 -0.0550909 0.198009 -0.124886 -0.0553144 0.198181 -0.0496137
-0.0556057 0.19889 0.0256561 -0.0557297 0.199832 0.100921 -0.0558273 0.201099 0.176185 -0.0559582
0.202443 0.251487 -0.0560821 0.203581 0.252022 -0.0560828 0.203587 0.252558 -0.0560835 0.203594
0.253094 -0.0560843 0.203601 0.25363 -0.056085 0.203608 0.25417 -0.0560858 0.203615 0.32839
-0.0561873 0.20457 0.402612 -0.0562904 0.2054 0.476835 -0.0563951 0.206106 0.551059 -0.0565279
[...]
POINT_DATA 2605
FIELD attributes 4
age 1 2605 float
0 0.0050112 0.0100224 0.0150336 0.0200448 0.025056 0.0288056 0.0325533 0.036301 0.0400487 0.0437965
0.0475449 0.0512906 0.0550362 0.0587818 0.0625274 0.0700241 0.0775231 0.0850221 0.092521 0.10002
0.10752 0.11502 0.12252 0.130019 0.137519 0.145019 0.152519 0.160019 0.167519 0.175018
0.182518 0.190018 0.197518 0.205017 0.212517 0.220017 0.227516 0.235016 0.242516 0.250016
0.257515 0.265015 0.272515 0.280015 0.287514 0.295014 0.302514 0.310014 0.317513 0.325013
0.332513 0.340013 0.347512 0.355012 0.362512 0.370012 0.377512 0.385011 0.392511 0.400011
0.407511 0.415011 0.42251 0.43001 0.43751 0.44501 0.452509 0.460009 0.467509 0.475009
0.482509 0.490008 0.497508 0.505008 0.512508 0.520008 0.527507 0.535005 0.542503 0.549999
0 0.00502584 0.0100529 0.0150741 0.0200872 0.0250922 0.0288313 0.0325645 0.0362911 0.0400109
0.0437245 0.0474309 0.0511305 0.0548283 0.0585259 0.0622253 0.0696366 0.0770728 0.0845237 0.0919893
0.0994695 0.10677 0.114072 0.121375 0.12868 0.134524 0.135009 0.135495 0.13598 0.136466
0.136951 0.144452 0.151951 0.159451 0.166949 0.174447 0.181945 0.189442 0.19694 0.204436
0.211933 0.21943 0.226927 0.234424 0.241921 0.249418 0.256915 0.264413 0.27191 0.279407
0.286905 0.294403 0.301901 0.309399 0.316897 0.324395 0.331893 0.339392 0.34689 0.354388
0.361887 0.369386 0.376885 0.384383 0.391882 0.399381 0.406881 0.41438 0.421879 0.429379
0.436878 0.444378 0.451878 0.459378 0.466878 0.474378 0.481879 0.489379 0.496879 0.504379
0.51188 0.519381 0.526882 0.534383 0.541883 0.549384 0 0.00502781 0.0100574 0.0150813
0.0200986 0.0251096 0.0288566 0.0325966 0.0363274 0.0400534 0.0437697 0.0474746 0.0511739 0.054872
0.0585692 0.0622661 0.069665 0.0770907 0.0845343 0.0919997 0.0994867 0.106989 0.114493 0.122
0.129509 0.137018 0.144533 0.152041 0.159549 0.167057 0.174564 0.182076 0.189581 0.197086
0.204591 0.212096 0.219608 0.227112 0.234617 0.242122 0.249627 0.257139 0.264644 0.272149
0.279654 0.28716 0.294672 0.302178 0.309683 0.317189 0.324695 0.332208 0.339713 0.347219
0.354725 0.362232 0.369745 0.377251 0.384757 0.392264 0.39977 0.407284 0.414791 0.422297
0.429804 0.437311 0.444825 0.452332 0.45984 0.467347 0.474854 0.482369 0.489876 0.497384
0.504891 0.512399 0.519914 0.527422 0.53493 0.542438 0.549946 0 0.00502992 0.0100658
0.0150989 0.0201261 0.0251484 0.028914 0.0326679 0.0364099 0.0401416 0.0438566 0.0475517 0.0512416
0.0549305 0.0586187 0.0623103 0.0696981 0.0771218 0.0845756 0.0920456 0.0995366 0.107048 0.114561
0.122078 0.1296 0.137123 0.144652 0.152175 0.159697 0.16722 0.174741 0.182268 0.189789
0.197309 0.204829 0.212349 0.219875 0.227395 0.234914 0.242434 0.249954 0.257481 0.265001
0.272521 0.280041 0.287562 0.295089 0.302609 0.31013 0.317651 0.325171 0.332699 0.34022
0.347741 0.355262 0.362783 0.370311 0.377833 0.385354 0.392875 0.400397 0.407926 0.415447
0.422969 0.430491 0.438013 0.445542 0.453064 0.460586 0.468109 0.475631 0.483161 0.490683
0.498206 0.505728 0.513251 0.520781 0.528304 0.535827 0.54335 0.550873 0 0.00268209
0.00536586 0.00805129 0.0107361 0.0139121 0.0161682 0.0184239 0.0206789 0.0229331 0.0251881 0.0267269
0.0282635 0.0297972 0.0313279 0.0337534 0.0357706 0.0377823 0.0397885 0.0417894 0.043779 0.0474582
0.0511388 0.0548208 0.0585093 0.0622105 0.0622369 0.0622633 0.0622897 0.062316 0.0623427 0.0659994
0.069666 0.0733423 0.0770288 0.080725 0.0813054 0.0818858 0.0824663 0.0830468 0.0836133 0.0867817
0.0899528 0.0931263 0.0963024 0.0994806 0.107 0.114521 0.122047 0.129578 0.137114 0.144656
0.152193 0.159729 0.167264 0.1748 0.182342 0.189877 0.197411 0.204945 0.212479 0.22002
0.227554 0.235088 0.242622 0.250156 0.257698 0.265232 0.272766 0.280301 0.287836 0.295377
0.302912 0.310447 0.317982 0.325517 0.33306 0.340595 0.34813 0.355666 0.363201 0.370744
0.378279 0.385815 0.393351 0.400887 0.40843 0.415966 0.423502 0.431039 0.438575 0.446119
0.453655 0.461192 0.468728 0.476265 0.483809 0.491346 0.498883 0.50642 0.513957 0.521502
0.529039 0.536577 0.544114 0.551652 0 0.00126439 0.00252916 0.0037946 0.00506084 0.0063279
0.0101152 0.0139109 0.0177181 0.0215318 0.025328 0.0269187 0.028499 0.0300725 0.0316387 0.033042
0.0333595 0.0336766 0.0339935 0.0343102 0.0346268 0.0364547 0.0382756 0.0400876 0.0418945 0.0436919
0.0454923 0.0472975 0.0491148 0.0509371 0.0527636 0.0528935 0.0530235 0.0531534 0.0532834 0.0534189
0.0551193 0.0568225 0.0585286 0.0602377 0.0619494 0.0656458 0.0693589 0.0730899 0.0768315 0.0805817
0.0843447 0.0881067 0.0918693 0.0956345 0.0994021 0.106937 0.114474 0.122015 0.12956 0.137109
0.144674 0.152226 0.159777 0.167329 0.174881 0.18244 0.189991 0.197541 0.205092 0.212642
0.220199 0.227749 0.235299 0.242849 0.2504 0.257957 0.265507 0.273058 0.280608 0.288159
0.295717 0.303268 0.310818 0.318369 0.32592 0.333479 0.34103 0.348581 0.356132 0.363683
0.371242 0.378794 0.386345 0.393897 0.401448 0.409008 0.416559 0.424111 0.431663 0.439215
0.446775 0.454327 0.461879 0.469431 0.476984 0.484543 0.492096 0.499648 0.507201 0.514754
0.522314 0.529867 0.537419 0.544972 0.552525 0 0.00126538 0.00253128 0.00379769 0.00506461
0.00633207 0.00822632 0.010123 0.012022 0.013924 0.015828 0.0177453 0.0196674 0.0215906 0.0235169
0.0254555 0.0264265 0.0273948 0.0283587 0.0293181 0.0302773 0.0307556 0.0312323 0.0317069 0.0321794
0.0326964 0.0331487 0.033599 0.0340473 0.0344937 0.0349376 0.0358477 0.0367546 0.0376575 0.0385561
0.0394458 0.0403349 0.0412225 0.0421095 0.0429961 0.0438834 0.0451942 0.0465113 0.0478349 0.0491644
0.0492209 0.0499524 0.0506852 0.0514195 0.0521552 0.0528918 0.0547208 0.0565632 0.058417 0.0602774
0.0621388 0.06401 0.0658822 0.0677565 0.0696335 0.0715143 0.0734024 0.075285 0.0771641 0.079045
0.0809308 0.0839442 0.0869615 0.0899801 0.0930001 0.0955876 0.0964533 0.0973193 0.0981854 0.0990516
0.0999181 0.107508 0.1151 0.122697 0.130298 0.137903 0.145534 0.153139 0.16074 0.168341
0.175941 0.183561 0.191159 0.198755 0.206352 0.213948 0.221563 0.229159 0.236753 0.244348
0.251944 0.259557 0.267152 0.274746 0.282341 0.289936 0.297547 0.305142 0.312736 0.32033
0.327925 0.335535 0.343129 0.350723 0.358317 0.365911 0.37352 0.381114 0.388707 0.396301
0.403895 0.411503 0.419096 0.426689 0.434282 0.441876 0.449483 0.457076 0.464669 0.472261
0.479855 0.48746 0.495053 0.502645 0.510238 0.51783 0.525435 0.533027 0.540619 0.548211
0.555804 0 0.00126273 0.00252613 0.00379056 0.00505616 0.00632293 0.00823283 0.0101447 0.0120603
0.0139793 0.0159036 0.0178207 0.0197507 0.0216936 0.0236492 0.0256271 0.026627 0.0276276 0.0286287
0.029629 0.0306411 0.0308884 0.0311356 0.0313826 0.0316275 0.0318169 0.0325676 0.0333056 0.0340306
0.0347422 0.0354458 0.0358928 0.0363381 0.0367818 0.037224 0.0376602 0.0380975 0.0385319 0.0389638
0.0393949 0.0398237 0.0402555 0.0406873 0.0411193 0.0415518 0.0419871 0.0424226 0.0428576 0.043293
0.0437292 0.0441678 0.0450451 0.0459319 0.0468292 0.0477381 0.0486638 0.0494163 0.0501677 0.0509215
0.0516786 0.0526181 0.052766 0.052914 0.053062 0.0532101 0.0533583 0.0543127 0.0552659 0.0562209
0.0571784 0.0581379 0.0591063 0.0600738 0.0610423 0.0620138 0.062987 0.0649544 0.0669165 0.068873
0.0708337 0.0727785 0.0747091 0.0766544 0.0786149 0.0805786 0.082546 0.0864991 0.090444 0.0943638
0.0982714 0.102181 0.109998 0.117783 0.1255 0.133162 0.140829 0.148525 0.1562 0.16387
0.171536 0.1792 0.186879 0.194542 0.202202 0.20986 0.217519 0.225191 0.232848 0.240505
0.248159 0.255814 0.263483 0.271137 0.278791 0.286443 0.294096 0.30176 0.309413 0.317064
0.324715 0.332365 0.340026 0.347677 0.355326 0.362975 0.370623 0.378281 0.385929 0.393577
0.401223 0.40887 0.416525 0.424171 0.431817 0.439461 0.447106 0.454758 0.462402 0.470046
0.477689 0.485332 0.492981 0.500624 0.508266 0.515906 0.523547 0.531193 0.538834 0.546474
0.554114 0.561753 0 0.00126436 0.00252936 0.003795 0.0050613 0.00632883 0.00824576 0.0101651
0.0120877 0.0140166 0.0159577 0.0169276 0.0179005 0.0188765 0.0198557 0.0208381 0.0218256 0.0228212
0.0238258 0.0248394 0.0258634 0.0263809 0.0269003 0.0274232 0.0279498 0.0284828 0.0287713 0.0290612
0.0293533 0.0296481 0.0297464 0.0300478 0.0303505 0.0306542 0.0309577 0.0312695 0.031371 0.0314725
0.0315742 0.0316761 0.0317494 0.0317791 0.0318088 0.0318385 0.0318681 0.0318966 0.0320609 0.0322251
0.0323891 0.032553 0.0327182 0.0328959 0.0330732 0.03325 0.033424 0.0335525 0.0336591 0.033765
0.0338704 0.0339748 0.0340807 0.0341944 0.0343064 0.034417 0.0345264 0.0346153 0.0346659 0.0347162
0.0347663 0.0348161 0.0348648 0.0349633 0.0350614 0.035159 0.0352562 0.0353513 0.0354723 0.0355918
0.0357099 0.035827 0.036018 0.0361199 0.0362214 0.0363225 0.0364236 0.0365143 0.0366035 0.0366929
0.0367822 0.0368715 0.0370359 0.0371545 0.037273 0.0373913 0.0375093 0.037626 0.0378447 0.0380619
0.0382791 0.038497 0.0387112 0.0389291 0.0391464 0.039364 0.039582 0.0397997 0.0400203 0.0402393
0.0404585 0.040678 0.0408982 0.0411181 0.0413376 0.0415574 0.041778 0.042001 0.0422252 0.0424476
0.0426702 0.0428935 0.0431178 0.0434442 0.0437722 0.0441054 0.0444443 0.0446145 0.0447804 0.0449468
0.0451135 0.0452806 0.0454489 0.0459358 0.0464152 0.046895 0.0473706 0.0478676 0.0483856 0.0488929
0.0494014 0.0499146 0.0504348 0.0505102 0.0505858 0.0506614 0.0507373 0.0508116 0.0518164 0.0528647
0.0539585 0.0550115 0.056074 0.0572756 0.0584549 0.0596356 0.0608217 0.0620075 0.0624731 0.0629376
0.0634018 0.0638663 0.064402 0.0651339 0.0658589 0.0665806 0.0673039 0.0680261 0.0681904 0.0683544
0.0685177 0.0686803 0.0688412 0.0698597 0.0708765 0.0718915 0.0729044 0.0739129 0.0750621 0.0762315
0.0774045 0.078579 0.0797559 0.0814324 0.08311 0.0847954 0.0864791 0.0887566 0.0892459 0.0897338
0.0902203 0.0907055 0.091189 0.0956738 0.100135 0.104527 0.108834 0.113011 0.121168 0.129263
0.137289 0.145244 0.153125 0.160884 0.168644 0.176401 0.184155 0.191907 0.199654 0.207402
0.215148 0.222892 0.230634 0.238373 0.246112 0.253849 0.261585 0.269319 0.272007 0.274695
0.277382 0.28007 0.282767 0.287809 0.292851 0.297892 0.302934 0.307976 0.315701 0.323432
0.331163 0.338893 0.346624 0.354343 0.362073 0.369803 0.377533 0.385263 0.392976 0.400705
0.408435 0.416164 0.423893 0.4316 0.439329 0.447057 0.454786 0.462514 0.470215 0.477943
0.48567 0.493398 0.501126 0.508821 0.516548 0.524274 0.532 0.539726 0.547416 0.55514
0.562864 0.570589 0.578314 0 0.00125406 0.00250906 0.00376537 0.00502312 0.00628243 0.00821362
0.0101475 0.0120842 0.0140279 0.0159859 0.0169585 0.0179349 0.0189154 0.0199 0.0208887 0.021883
0.0228881 0.0239049 0.0249335 0.025975 0.0265035 0.0270352 0.0275738 0.0281191 0.0286732 0.0292387
0.0298119 0.030398 0.0309981 0.031625 0.0319439 0.0322628 0.0325824 0.032903 0.0332382 0.0333029
0.0333675 0.0334322 0.0334969 0.0335507 0.0336364 0.0337207 0.0338037 0.0338859 0.0339528 0.0341222
0.0342883 0.0344514 0.0346109 0.0347757 0.0349198 0.0350612 0.0351999 0.0353351 0.0354554 0.0355743
0.0356926 0.0358104 0.0359266 0.0360371 0.0361555 0.0362706 0.0363828 0.0364944 0.0366421 0.0367478
0.0368533 0.0369586 0.0370637 0.0371603 0.0373456 0.0375309 0.0377191 0.0379099 0.0382835 0.0385346
0.0387887 0.0390404 0.0392897 0.0395334 0.039996 0.0404525 0.0409055 0.0413556 0.0418011 0.0422598
0.0427026 0.0431489 0.0435984 0.0440512 0.0445276 0.0449981 0.0454773 0.0459614 0.0464542 0.0472219
0.0480067 0.0488027 0.0496148 0.0496992 0.0501232 0.0505463 0.0509683 0.051389 0.0518115 0.0529435
0.0540726 0.0552249 0.0563968 0.0576053 0.0588733 0.0601131 0.0613331 0.0625611 0.0637945 0.0647108
0.0656139 0.0665151 0.0674107 0.0685984 0.0688805 0.0691627 0.0694451 0.0697279 0.070011 0.0706305
0.0712503 0.0718708 0.0724921 0.073227 0.0738285 0.0744299 0.075031 0.0756314 0.0762283 0.0774712
0.0787177 0.0799719 0.0812276 0.0824825 0.0849729 0.0874676 0.0899327 0.0923555 0.0947498 0.09958
0.10436 0.109002 0.113508 0.117862 0.121507 0.12514 0.128759 0.132364 0.136838 0.141332
0.145773 0.150162 0.1545 0.158786 0.166545 0.174313 0.18208 0.189845 0.197608 0.205352
0.213115 0.220877 0.228638 0.236399 0.244132 0.251891 0.259651 0.26741 0.275169 0.282894
0.290652 0.29841 0.306168 0.313926 0.321644 0.3294 0.337157 0.344914 0.352671 0.360382
0.368138 0.375894 0.38365 0.391405 0.39911 0.406865 0.414619 0.422373 0.430128 0.437827
0.44558 0.453333 0.461086 0.468839 0.476533 0.484284 0.492035 0.499786 0.507537 0.515226
0.522976 0.530725 0.538474 0.546223 0.553907 0.561652 0.569398 0.577145 0.584891 0
0.00125898 0.00251863 0.00377897 0.00504071 0.0063041 0.00823268 0.0101642 0.0120986 0.0140405 0.0159964
0.0169692 0.0179461 0.0189271 0.0199122 0.0209017 0.0218961 0.0229011 0.0239177 0.0249462 0.0259875
0.0265165 0.0270483 0.0275859 0.0281302 0.0286838 0.0292468 0.0298174 0.0303976 0.0309904 0.0316128
0.031929 0.0322459 0.0325632 0.0328805 0.0332103 0.0334509 0.0336902 0.0339275 0.0341585 0.0342549
0.0343568 0.0344575 0.0345572 0.0346558 0.0347571 0.0349598 0.0351555 0.0353446 0.0355277 0.0356837
0.0357612 0.0358385 0.035915 0.0359908 0.0360649 0.0360762 0.0360874 0.0360986 0.0361099 0.0361215
0.0362589 0.036395 0.0365299 0.0366635 0.0368567 0.0369302 0.0370036 0.037077 0.0371502 0.0372198
0.0376773 0.0381402 0.0386166 0.0391011 0.0395147 0.039976 0.0404264 0.0408757 0.0413273 0.0417868
0.0422627 0.0427287 0.0431919 0.0436574 0.0441308 0.0446222 0.0451041 0.0455826 0.0460664 0.0465632
0.0476007 0.04866 0.0497329 0.0508225 0.051572 0.051647 0.051722 0.0517969 0.0518718 0.0519467
0.0530775 0.0542319 0.0554154 0.0566214 0.0578457 0.0591124 0.06036 0.0615942 0.0628439 0.064085
0.0647086 0.0653224 0.0659337 0.0665426 0.0671537 0.0677778 0.0683924 0.0690028 0.0696153 0.0702291
0.0714782 0.0727324 0.0739844 0.0752314 0.0764699 0.0768476 0.0772241 0.077601 0.0779781 0.0784034
0.0788409 0.0792781 0.0797151 0.0801519 0.0806058 0.0810315 0.0814576 0.081884 0.0823109 0.0827382
0.08524 0.0877258 0.0901961 0.0926144 0.0950033 0.0997239 0.104399 0.108966 0.113413 0.117869
0.125485 0.132987 0.140347 0.147569 0.15906 0.165849 0.172637 0.179423 0.186206 0.19315
0.194079 0.195008 0.195937 0.196866 0.197795 0.205534 0.213274 0.221014 0.228753 0.236491
0.244219 0.251957 0.259694 0.267431 0.275168 0.282889 0.290625 0.298362 0.306098 0.313835
0.321548 0.329284 0.33702 0.344755 0.352491 0.360198 0.367933 0.375668 0.383403 0.391138
0.398839 0.406573 0.414307 0.422041 0.429775 0.437471 0.445204 0.452937 0.46067 0.468403
0.476093 0.483824 0.491556 0.499287 0.507019 0.514705 0.522435 0.530165 0.537895 0.545625
0.553305 0.561032 0.56876 0.576487 0.584215 0 0.00127988 0.00256039 0.00384216 0.0051254
0.00641013 0.00831647 0.0102253 0.0121369 0.014055 0.0159852 0.0169571 0.0179321 0.0189105 0.0198923
0.0208777 0.0218718 0.0228749 0.0238879 0.0249108 0.025946 0.0263958 0.0268473 0.0273024 0.027761
0.027882 0.0280255 0.0281693 0.028313 0.0284569 0.0286011 0.0291445 0.0296922 0.0302472 0.030811
0.0313957 0.0313974 0.031399 0.0314006 0.0314022 0.0314038 0.0314804 0.031557 0.0316336 0.0317101
0.0317765 0.0319908 0.032205 0.0324191 0.032633 0.0328504 0.032933 0.0330155 0.0330979 0.0331801
0.033251 0.0334595 0.0336672 0.0338738 0.0340772 0.0342869 0.0343506 0.0344138 0.0344766 0.034539
0.034593 0.034599 0.0346049 0.0346108 0.0346167 0.0346226 0.0348361 0.0350452 0.0352499 0.0354471
0.0356359 0.035659 0.035682 0.035705 0.0357279 0.0357514 0.0358523 0.0359522 0.036051 0.0361513
0.0362948 0.036388 0.0364807 0.0365727 0.0366638 0.0367526 0.036859 0.0369646 0.0370697 0.037175
0.0373286 0.0374245 0.0375202 0.037616 0.0377126 0.037807 0.038019 0.0382291 0.0384388 0.0386479
0.03886 0.0390801 0.0392957 0.0395069 0.0397182 0.0399322 0.0401485 0.0403631 0.0405766 0.0407906
0.0410076 0.041229 0.041447 0.0416633 0.0418801 0.0420979 0.0423169 0.0425345 0.0427517 0.0429693
0.0431885 0.0436342 0.0440801 0.0445292 0.0449818 0.0454427 0.0459218 0.0463892 0.0468488 0.0473113
0.0477874 0.0482713 0.0487528 0.049234 0.0497191 0.0502122 0.0512315 0.0522561 0.0532907 0.0543788
0.0554859 0.0558789 0.0562723 0.0566669 0.0570634 0.0574851 0.0582493 0.0590127 0.0597756 0.0605431
0.0613183 0.0625221 0.0636969 0.0648759 0.0660707 0.0672672 0.0684992 0.0697048 0.0708872 0.0720624
0.0732297 0.073925 0.0746185 0.0753129 0.0760083 0.0766814 0.0768313 0.0769813 0.0771312 0.0772812
0.0774332 0.0777662 0.0780994 0.0784328 0.0787664 0.0791003 0.0814491 0.083799 0.0861483 0.0884686
0.0907582 0.0952623 0.099818 0.104283 0.108599 0.112808 0.121108 0.129377 0.137587 0.145626
0.153496 0.161236 0.168977 0.176714 0.184447 0.192178 0.199905 0.207631 0.215356 0.22308
0.230801 0.238519 0.246238 0.253955 0.261671 0.269385 0.273973 0.27856 0.283147 0.287734
0.292318 0.295443 0.298567 0.301692 0.304817 0.307942 0.315649 0.323359 0.331069 0.338779
0.346489 0.35419 0.3619 0.369609 0.377319 0.385029 0.392724 0.400433 0.408143 0.415852
0.423561 0.431251 0.43896 0.446668 0.454377 0.462085 0.46977 0.477478 0.485186 0.492893
0.500601 0.508282 0.515988 0.523695 0.531401 0.539108 0.546783 0.554487 0.562192 0.569897
0.577603 0 0.00127749 0.00255569 0.003835 0.00511559 0.00639745 0.00829895 0.0102024 0.0121087
0.0140198 0.015939 0.0169031 0.0178691 0.018837 0.0198072 0.0207796 0.0217533 0.022732 0.0237161
0.0247047 0.0256971 0.0266878 0.0276849 0.0286904 0.0296912 0.0307 0.0307776 0.0308552 0.0309328
0.0310102 0.0310816 0.0320015 0.0329021 0.0337823 0.0346414 0.0354982 0.0359462 0.036392 0.0368357
0.0372784 0.0377156 0.0381543 0.0385905 0.0390259 0.0394607 0.0398896 0.0403228 0.0407562 0.0411899
0.041624 0.0420586 0.0424951 0.0429304 0.0433665 0.0438037 0.0442427 0.0451212 0.0460083 0.0469018
0.047803 0.0487289 0.049677 0.0506171 0.0515501 0.0524896 0.053439 0.0542228 0.0550127 0.0558051
0.0565993 0.0578563 0.0579439 0.0580315 0.0581192 0.0582068 0.0582945 0.059279 0.0602635 0.0612484
0.0622329 0.063216 0.0652164 0.0672031 0.0691789 0.0711644 0.0731494 0.0751088 0.0770948 0.0790942
0.0810976 0.083103 0.0871158 0.091148 0.0951482 0.0991013 0.103048 0.106164 0.109286 0.112415
0.115535 0.119259 0.123941 0.128599 0.133232 0.13784 0.142425 0.150135 0.157847 0.165557
0.173265 0.18097 0.188664 0.196365 0.204064 0.211762 0.219459 0.227145 0.234839 0.242531
0.250223 0.257914 0.265596 0.273284 0.280971 0.288657 0.296343 0.304022 0.311705 0.319388
0.327069 0.33475 0.342426 0.350105 0.357783 0.36546 0.373137 0.380809 0.388484 0.396158
0.403832 0.411504 0.419174 0.426845 0.434515 0.442185 0.449854 0.457521 0.465188 0.472855
0.480521 0.488187 0.495851 0.503515 0.511178 0.518841 0.526503 0.534163 0.541824 0.549484
0.557144 0.564803 0 0.00127406 0.00254874 0.00382386 0.00510022 0.00637779 0.00827363 0.0101716
0.0120719 0.0139751 0.0158825 0.0177918 0.0197063 0.0216257 0.0235498 0.0254819 0.0264528 0.0274207
0.0283837 0.0293417 0.0299791 0.0309936 0.0320003 0.0329966 0.0339829 0.0349575 0.0358666 0.0367724
0.037674 0.0385727 0.0394625 0.0403533 0.0412426 0.0421308 0.0430181 0.0439046 0.0456821 0.0474768
0.0492859 0.0511047 0.0529398 0.0538525 0.0547667 0.0556832 0.0566021 0.0580604 0.058889 0.0597191
0.0605508 0.061384 0.0622185 0.064094 0.0659723 0.0678534 0.069737 0.0716226 0.0735178 0.0754053
0.0772938 0.0791837 0.0810746 0.0848704 0.0886656 0.0924653 0.0962697 0.100088 0.107786 0.115488
0.123143 0.130763 0.138397 0.146046 0.153692 0.161336 0.168979 0.176621 0.184267 0.191909
0.19955 0.207189 0.214827 0.222469 0.230107 0.237744 0.24538 0.253015 0.260653 0.268289
0.275923 0.283557 0.29119 0.298826 0.306459 0.314091 0.321722 0.329353 0.336987 0.344617
0.352248 0.359877 0.367505 0.375137 0.382766 0.390394 0.398021 0.405648 0.413277 0.420903
0.42853 0.436155 0.44378 0.451407 0.459031 0.466656 0.474279 0.481902 0.489527 0.49715
0.504772 0.512394 0.520015 0.527637 0.535258 0.542878 0.550498 0.558117 0 0.00127139
0.00254316 0.00381546 0.00508835 0.00636185 0.0101412 0.0139321 0.0177222 0.0215089 0.0252996 0.0257954
0.02629 0.0267837 0.0272765 0.0277091 0.0290941 0.0304739 0.0318486 0.0332183 0.0345854 0.0364266
0.0382585 0.0400735 0.0418844 0.0436902 0.0455016 0.0473104 0.0491206 0.0509395 0.0527696 0.0546059
0.0564436 0.0582841 0.0601275 0.0619735 0.0656757 0.0693917 0.0731234 0.07687 0.0806206 0.084391