# vtk DataFile Version 2.0
sampleSurface
ASCII
DATASET POLYDATA
POINTS 2021 float
-0.500032 0 0.11501 -0.499951 3.38813e-21 0.0392727 -0.789037 8.47033e-21 0.120673 -0.500013 -1.35525e-20
0.193965 1.00003 0 0.0485099 1.00003 0 0.0478584 0.475202 0 0.0353615
0.250044 1.41878e-20 0.0305359 0.2506 -5.42101e-20 0.117067 0.251301 0 0.203885 0.364989
0 0.203772 1.75002 0 0.113255 1.75002 0 0.0564279 2.50001 6.89146e-18
0.059229 2.21354 0 0.250758 2.50001 0 0.252875 3.25001 -3.47927e-17 0.0598775
3.25001 -1.69407e-21 0.253888 4.00001 5.60566e-18 0.0599857 4 0 0.253986 4.75
-1.79088e-17 0.0599988 4.75 8.47033e-22 0.253998 5.5 -2.79246e-17 0.0599999 5.5 -4.23516e-22
0.253999 6.25 1.01187e-17 0.06 6.25 0 0.254 7 2.93732e-17 0.06
7 0 0.254 7.75 -2.65294e-17 0.06 7.75 0 0.254 8.5
1.8923e-17 0.06 8.5 0 0.254 9.25 -2.88552e-17 0.06 9.25 -5.29396e-23
0.254 10 -2.64698e-23 0.254 10 0 0.06 -4.24997 0 0.0599042
-5 0 0.0599861 -5 0 0.253986 -4.24997 0 0.253912 -3.49995
0 0.0593815 -3.49994 0 0.253441 -2.74993 0 0.0570188 -2.74991 0
0.251316 -1.99991 0 0.0492276 -1.99987 0 0.242776 -1.24992 -1.69407e-21 0.03
-1.24985 1.23328e-17 0.222327 -1.24989 3.38813e-21 0.125756 -0.874924 2.08116e-17 0.03 -0.874929
0 0.122356 -0.124951 -8.47033e-22 0.03 -0.499941 0 0.03 -0.124922 -8.47033e-22
0.0385291 1.00021 0 0.231242 0.625368 0 0.203537 0.25004 -2.11758e-22 0.03
1.75003 0 0.247334 1.92873 1.69407e-21 0.441438 2.50001 0 0.447397 3.25
-1.69407e-21 0.447898 4 0 0.447986 4.75 0 0.447997 5.5 -4.23516e-22
0.447999 6.25 4.23516e-22 0.447999 7 0 0.448 7.75 -1.05879e-22 0.448
8.5 0 0.448 9.25 0 0.448 10 -2.64698e-23 0.448 -5
-8.47033e-22 0.447985 -4.24997 0 0.447919 -3.49993 0 0.4475 -2.74988 0
0.445609 -1.9998 6.77626e-21 0.437758 -1.24969 1.61411e-17 0.417681 -1.24976 -6.77626e-21 0.31973
-0.875161 7.70461e-18 0.216228 -0.875403 0 0.312476 -0.499924 -8.74138e-19 0.250039 -0.312433
0 0.250037 -0.312436 0 0.200025 -0.499924 0 0.200026 0.250062 3.38813e-21
0.24921 0.250039 -1.69407e-21 0.250046 0.250032 0 0.300069 0.437526 3.05948e-18 0.300066
0.625026 0 0.30005 1.00072 -8.23994e-18 0.326497 1.00196 0 0.423 1.75013
0 0.439575 1.75013 1.77877e-20 0.448245 1.00135 0 0.537141 1.00002 0
0.61834 1.74999 2.71051e-20 0.633055 2.49999 -3.38813e-21 0.641448 3.25 0 0.641907
4 -1.69407e-21 0.641985 4.75 -8.47033e-22 0.641996 5.5 -4.23516e-22 0.641998 6.25
0 0.641999 7 0 0.641999 7.75 0 0.642 8.5 5.29396e-23
0.642 9.25 -5.29396e-23 0.642 10 0 0.642 -5 0 0.641985
-4.24997 -1.69407e-21 0.641926 -3.49993 0 0.641557 -2.74988 0 0.639897 -1.99989
6.77626e-21 0.63382 -1.25099 2.55465e-18 0.614606 -1.25 -2.71051e-20 0.515981 -0.878244 0
0.50789 -0.875961 2.71051e-20 0.459694 -0.875609 0 0.410432 -0.498432 0 0.400603
-0.498071 -1.70762e-18 0.413126 -0.450805 0 0.413349 -0.45095 0 0.400955 0.250009
1.89735e-19 0.412703 0.25 2.71051e-20 0.425212 0.296872 1.00289e-18 0.425187 0.343754 -2.71051e-20
0.425153 0.343763 0 0.400146 0.250006 0 0.400175 1.00162 1.41488e-17 0.520353
-2 4.23516e-22 0.820145 -2.09502 -2.11758e-22 0.830091 -2 0 0.829497 -1.25123
0 0.813251 -1.25126 0 0.713737 -1.25101 6.77626e-21 0.62198 1.00059 0
0.714169 1.00094 0 0.809205 1.75018 0 0.82775 2.5 0 0.835521
3.25 0 0.835917 4 -1.69407e-21 0.835986 4.75 -8.47033e-22 0.835996 5.5
0 0.835998 6.25 0 0.835999 7 0 0.835999 7.75 0
0.836 8.5 0 0.836 9.25 0 0.836 10 0 0.836
-5 -8.47033e-22 0.835986 -4.24997 0 0.835935 -3.49995 0 0.835616 -2.74991
0 0.83419 -0.970118 0 0.703382 -0.87455 0 0.699864 -0.874264 -2.71051e-20
0.649852 -0.874033 -2.71051e-20 0.599873 -0.49698 0 0.599585 -0.497345 -9.21572e-19 0.612046
-0.450014 0 0.611892 -0.44938 2.71051e-20 0.599454 -2.00002 0 0.84097 -1.84639
-3.38813e-21 1.02215 -1.25185 0 1.01276 -0.896512 -3.38813e-21 0.900668 -0.908183 6.77626e-21
0.801076 -0.904022 -1.86347e-20 1.00093 0.624925 0 0.799916 0.249931 0 0.799891
0.249978 0 0.899916 0.249997 0 0.999939 0.999987 0 0.999957 1.75061
-2.1684e-19 1.02409 2.50003 0 1.0296 3.25 -1.69407e-21 1.02993 4 0
1.02999 4.75 0 1.03 5.5 0 1.03 6.25 2.11758e-22 1.03
7 0 1.03 7.75 0 1.03 8.5 5.29396e-23 1.03 9.25
0 1.03 10 0 1.03 -5 0 1.02999 -4.24998 0
1.02994 -3.49996 -8.47033e-22 1.02968 -2.74996 0 1.02849 -2.00026 0 1.02458
-0.87482 0 0.799893 -0.87491 0 0.899919 -0.49993 0 0.799862 -0.499958
7.6233e-19 0.849889 -0.312476 0 0.849885 -0.312472 0 0.799853 -1.25001 8.04681e-21
1.19601 -0.499979 5.29396e-23 1.10737 -0.731886 2.11758e-22 1.19997 -0.499981 0 1.19997
-0.124987 0 0.999933 -0.477759 -5.29396e-23 0.999933 -0.487556 -1.45584e-22 1.09995 0.250008
0 1.19997 1 0 1.19997 1.7507 0 1.22203 2.50003 -1.35525e-20
1.22368 3.25 0 1.22394 4 0 1.22399 4.75 4.23516e-22 1.224
5.5 0 1.224 6.25 2.11758e-22 1.224 7 0 1.224 7.75
1.05879e-22 1.224 8.5 0 1.224 9.25 0 1.224 10 2.64698e-23
1.224 -5 4.23516e-22 1.22399 -4.24999 -4.23516e-22 1.22395 -3.49998 0 1.22374
-2.75001 0 1.22279 -2.00077 0 1.21965 -1.24997 4.23516e-22 1.19997 -0.499969
-5.29396e-23 0.999933 -0.874942 0 0.999936 -0.499979 -1.32349e-23 1.09995 -2.75001 0
1.36967 -3.18711 4.23516e-22 1.41751 -2.75001 4.23516e-22 1.4171 -2.00072 3.38813e-21 1.29692
-2.00065 0 1.41474 -1.25823 6.35275e-21 1.40014 -0.980416 0 1.39998 -0.499986
0 1.39998 0.250009 0 1.39998 1 0 1.39998 1.75054 0
1.41682 2.50002 -1.35525e-20 1.41776 3.25 0 1.41796 4 4.23516e-22 1.41799
4.75 0 1.418 5.5 0 1.418 6.25 0 1.418 7
0 1.418 7.75 0 1.418 8.5 0 1.418 9.25 0
1.418 10 0 1.418 -5 0 1.41799 -4.24999 0 1.41797
-3.49999 -4.23516e-22 1.41781 -1.24998 0 1.39998 -2.80392 1.32349e-23 1.61143 -2.75
-1.32349e-23 1.6114 -2.0003 0 1.60983 -1.25396 2.64698e-23 1.60004 -1.12789 2.64698e-23
1.59999 -0.49999 1.05879e-22 1.59999 0.250008 0 1.59999 1.00001 4.23516e-22 1.59999
1.75038 0 1.61122 2.50002 0 1.61184 3.25 -4.23516e-22 1.61197 4
-4.23516e-22 1.61199 4.75 0 1.612 5.5 0 1.612 6.25 0
1.612 7 0 1.612 7.75 5.29396e-23 1.612 8.5 2.64698e-23 1.612
9.25 -1.32349e-23 1.612 10 -1.32349e-23 1.612 -5 0 1.61199 -4.24999
0 1.61198 -3.49999 0 1.61187 -1.24999 0 1.59999 -2.75 -1.32349e-23
1.63714 -2.64195 -2.11758e-22 1.80559 -2.00012 -8.47033e-22 1.80492 -1.25741 0 1.80004
-1.19082 -7.94093e-23 1.8 -0.499992 1.05879e-22 1.79999 0.250006 2.11758e-22 1.79999 1
0 1.8 1.75023 0 1.80561 2.50001 3.38813e-21 1.80592 3.25 0
1.80599 4 0 1.806 4.75 2.11758e-22 1.806 5.5 0 1.806
6.25 0 1.806 7 0 1.806 7.75 0 1.806 8.5
2.64698e-23 1.806 9.25 0 1.806 10 0 1.806 -5 0
1.806 -4.25 -2.11758e-22 1.80599 -3.49999 0 1.80594 -2.75 -1.05879e-22 1.8057
-1.24999 0 1.8 -2 -4.76456e-22 1.98532 -1.20969 -1.65436e-23 2 -0.499993
0 2 0.250006 0 2 1 0 2 1.75 0
2 2.5 0 2 3.25 0 2 4 0 2
4.75 -1.05879e-22 2 5.5 0 2 6.25 0 2 7
5.29396e-23 2 7.75 0 2 8.5 0 2 9.25 0
2 10 -1.32349e-23 2 -5 2.21817e-18 2 -4.25 1.05879e-22 2
-3.49999 0 2 -2.74999 0 2 -1.99999 -5.29396e-23 2 -1.24999
3.30872e-24 2 0.0956945 -5.42101e-20 0.203879 0.0632748 0 0.203876 0.0625511 0
0.250042 -0.403589 6.77626e-21 0.40138 -0.405779 7.7927e-19 0.38799 -0.406379 -6.77626e-21 0.375196
-0.499567 -1.35525e-20 0.375265 0.250006 -6.50521e-19 0.375144 0.156247 0 0.375155 0.156237
9.41901e-19 0.400212 0.203129 0 0.400201 0.249796 0 0.59991 0.249852 -1.0842e-19
0.587433 0.202953 0 0.587417 0.202888 6.50521e-19 0.599901 0.625121 -6.77626e-21 0.499953
0.717439 6.77626e-21 0.504955 0.625095 6.77626e-21 0.475379 0.343596 1.0842e-19 0.599918 0.343639
0 0.574939 0.296781 0 0.574964 0.249926 0 0.574977 0.62499 -4.2826e-18
0.549927 0.624917 4.55365e-18 0.599925 0.203133 0 0.412725 -0.449046 0 0.587135
-0.496581 5.42101e-20 0.587161 0.625036 -9.32414e-18 0.40006 0.625067 1.13164e-18 0.450032 0.249704
0 0.624881 0.155871 0 0.599866 0.155839 1.95156e-18 0.624853 0.249886 1.35525e-20
0.749873 0.062411 0 0.749846 0.0624478 -4.26227e-18 0.799869 -0.312472 0 0.749804
-0.499901 -3.38813e-21 0.749824 -0.691227 0 0.30453 -0.499912 3.02221e-18 0.300065 -0.875784
-3.11708e-18 0.361353 -0.592465 -2.71051e-20 0.40036 -0.499854 0 0.350135 -0.687111 1.35525e-20
0.350117 -0.68656 -2.71051e-20 0.40021 0.437526 -1.35525e-20 0.400108 0.437522 6.77626e-21 0.350086
0.250015 -2.51399e-18 0.35011 0.625027 3.38813e-21 0.350064 -0.592287 0 0.425286 -0.498048
0 0.425444 -0.873902 5.42101e-18 0.54992 -0.496663 0 0.574746 -0.591532 0
0.574798 -0.591729 0 0.599734 -0.149108 0 0.406489 -0.149477 -5.29396e-23 0.403592
-0.149678 0 0.406489 -0.451876 -2.1684e-18 0.499977 -0.451579 0 0.487563 -0.498366
0 0.487552 -0.498515 -1.0842e-19 0.499993 0.437553 0 0.450075 0.437532 -6.07153e-18
0.425113 0.254621 -1.25361e-19 0.496697 0.26485 -5.42101e-20 0.498023 0.264831 0 0.496529
0.254636 -2.30393e-19 0.49668 0.570241 0 0.499932 0.437665 -2.71051e-20 0.474991 0.437859
-2.71051e-20 0.49988 0.437372 -1.0842e-19 0.599915 0.249722 3.25261e-19 0.649874 0.43732 -5.42101e-20
0.649899 0.624872 0 0.649914 0.624883 -3.95734e-18 0.699913 0.43734 6.83047e-18 0.699894
0.249817 0 0.699869 -0.592227 0 0.624743 -0.498071 -2.71051e-20 0.624658 -0.499769
6.77626e-21 0.69979 -0.687025 0 0.699824 -0.150854 -1.03677e-18 0.599678 -0.151059 -6.77626e-21
0.605522 -0.127339 6.77626e-21 0.605681 -0.127867 0 0.599582 -0.406139 -4.40457e-20 0.699754
-0.406113 0 0.674749 -0.499634 0 0.674774 -0.18433 -4.23516e-22 0.674527 -0.163626
-4.23516e-22 0.678958 -0.165125 0 0.674537 -0.171868 4.23516e-22 0.674524 -0.14924 3.34737e-19
0.400169 -0.125737 0 0.400165 -0.12551 0 0.393854 -0.149076 -2.11758e-22 0.393877
-0.499925 -2.61564e-18 0.325088 -0.406241 0 0.325087 -0.4062 0 0.300069 -0.124901
0 0.300062 -0.218633 -3.27294e-18 0.299673 -0.218596 1.35525e-20 0.324664 -0.124851 0
0.325085 -0.126061 7.86047e-19 0.406473 -0.0785222 1.30782e-18 0.400166 -0.126118 3.38813e-21 0.41275
-0.0785648 0 0.412729 0.240678 1.0842e-18 0.500153 0.252614 -2.1684e-19 0.498317 0.252386
1.0842e-19 0.496231 0.241035 0 0.496114 0.228892 -1.35525e-20 0.496204 0.228835 6.77626e-21
0.498715 0.229819 2.71051e-20 0.500074 0.25248 0 0.499935 0.240657 -1.6263e-19 0.500957
0.264863 0 0.500154 0.264689 0 0.500951 0.437443 0 0.549896 0.437406
[...]
POINT_DATA 2021
FIELD attributes 2
p 1 2021 float
2.00829 1.43684 2.36899 4.36162 0.0601064 0.0579905 -4.2044 -6.04328 -7.69229 -6.16429 -4.31952
0.496358 0.464175 0.111648 0.326627 0.174801 0.00335315 0.0271228 0.00557434 0.014429 0.00976922
0.0156759 0.00501174 0.0100664 0.000330587 0.00462485 -0.00130044 0.00236661 -0.00101673 0.00214483 -0.000437077
0.00214286 0.000577677 0.00334253 0 0 0.614188 0.609736 0.609584 0.613903 0.635062
0.634167 0.704994 0.701864 0.926954 0.923672 1.6409 1.76248 1.77769 2.23557 2.476
-4.05796 1.36682 -4.11078 0.652666 -0.108185 -6.03305 0.572265 0.442722 0.189817 0.0292544
0.00733909 0.00952695 0.00571329 0.00113375 -0.000573147 -0.000265899 -0.000403685 0.0026623 0 0.609152
0.613134 0.631754 0.692835 0.902585 1.95643 2.02913 3.12775 3.87229 7.32301 -3.30168
-1.05292 4.5817 -5.72724 -5.71935 -2.25822 0.343549 0.83056 1.03344 0.928736 0.521779
0.517587 0.848773 0.881422 0.428087 0.167497 0.0231397 0.00239986 0.00661607 0.00449306 0.000549653
-0.000889872 -0.000387132 -0.000247829 0.00287281 0 0.608462 0.611945 0.62812 0.680155 0.862175
1.85047 2.1362 5.13447 5.58842 4.82576 32.5759 36.4607 52.0311 45.9875 4.7753
4.92604 3.41269 3.44523 2.69976 4.1003 0.842019 0.808156 0.787686 0.805445 1.39703
1.78601 1.8457 0.993583 0.483129 0.35009 0.127781 0.0136299 0.000539633 0.00705012 0.00628683
0.00270746 0.00124509 0.00153194 0.00209771 0.00352292 0 0.607587 0.610465 0.62369 0.665285
3.25257 3.75111 4.68309 4.76085 34.362 32.7015 44.628 50.7683 0.801614 0.781382
0.940035 1.70276 2.62762 1.14234 0.0809874 -4.88268 -5.30118 -2.74821 -0.227993 0.19121
0.0732573 -0.00552979 -0.0108657 -0.000851172 0.00101522 -0.00106734 -0.00164378 -0.000777298 0.000327595 0.00129763
0 0.606618 0.608843 0.618865 0.649313 0.7403 2.7472 1.73252 5.19118 3.29432
0.560551 -0.669753 0.69797 0.311441 0.313111 0.143183 -1.70895 0.674167 0.281932 -0.973911
-0.393529 0.0979984 0.0647247 -0.00295212 -0.0108607 -0.000953726 0.00157876 -0.000256218 -0.000820558 1.47166e-05
0.00106378 0.00156858 0 0.605654 0.607234 0.61402 0.633195 0.676829 0.692731 0.824211
1.15924 0.324927 0.621972 0.61325 0.618348 0.656576 0.625688 0.566745 0.384105 0.0597636
-0.564198 -0.377481 0.0462143 0.0592319 -0.00437409 -0.0151006 -0.00430916 -0.000667714 -0.00200973 -0.00232139
-0.00131344 -0.00014171 0.000439281 0 0.604791 0.60578 0.609601 0.56609 0.606579 0.606619
0.590618 0.495617 0.427108 0.0774067 -0.43524 -0.348689 -0.000981803 0.0479964 -0.0079301 -0.0187544
-0.00640263 -0.00167202 -0.00261287 -0.0027381 -0.00162807 -0.000388952 0.000262013 0 0.604113 0.604608
0.60606 0.495111 0.605641 0.595066 0.570306 0.457975 0.427651 0.0867308 -0.365019 -0.332795
-0.0274995 0.0429091 -0.00833208 -0.0198383 -0.00715639 -0.00208912 -0.00293298 -0.00299331 -0.00183479 -0.000568309
0.000127899 0 0.603675 0.603827 0.603719 0.599234 0.456852 0.564038 0.425497 0.0898207
-0.342661 -0.327655 -0.0357908 0.0413794 -0.00842775 -0.0202554 -0.00751463 -0.00231804 -0.00309262 -0.00309087
-0.00188905 -0.000602539 0.000114569 7.94623e-05 0.603521 0.603545 0.602877 0.596716 0.563528 0.44456
-10.2852 -11.1432 -11.7918 70.4983 60.0924 43.9032 29.6756 2.93617 1.70638 4.41706
5.07583 4.14702 4.56505 6.19506 5.40642 2.02639 1.73585 2.14314 2.97314 3.68347
3.37858 3.9823 2.24657 1.91444 6.06375 56.2562 39.4491 1.93804 2.26323 3.63763
4.73489 2.14852 -4.53456 -11.2118 -9.84717 -3.17962 8.46874 7.00341 11.9036 4.74903
17.4632 20.8216 9.13624 10.5167 2.58753 1.50432 1.00233 1.65917 19.7301 36.917
5.61273 39.6483 20.3306 18.8212 -58.6774 -58.4608 -58.674 68.4661 68.3788 47.5645
44.7988 3.41879 3.11975 -4.99076 0.374666 0.224191 -5.0403 2.59012 3.98936 3.94627
2.86622 1.82724 1.76105 1.62725 0.949547 0.760178 -1.36736 17.0072 28.1102 13.3006
7.27802 -56.4833 -56.276 -58.7539 -58.6749 13.8858 19.1251 18.4901 -46.244 -42.6926
-44.37 -45.1023 -58.2089 -57.5063 -57.5081 -57.6278 16.613 15.8898 12.0063 -29.3599
-27.9701 -45.3607 -37.0526 -58.8132 -45.994 -58.6415 -48.0839 10.9945 4.30598 10.5167
11.8528 9.09402 9.37015 9.65872 4.53129 11.1165 0.932531 0.766002 3.72458 3.48164
4.0694 4.3243 47.7578 68.3487 -58.793 -56.4042 6.51719 11.1225 -51.4139 -52.7
-58.3836 4.50142 6.30996 6.48744 6.51987 -31.4126 -40.0151 -49.3993 -29.7637 64.4124
60.7973 41.6594 41.4081 -44.0759 -56.0418 -11.5252 -8.58253 -0.438818 -24.5363 -42.4319
42.987 44.3142 64.3132 66.4839 -51.7788 -49.9455 -50.71 0.30475 -9.70429 -12.7397
-11.7066 -21.6883 -24.895 -57.8271 44.0429 21.853 22.1471 11.7023 12.0189 12.1929
13.1437 22.0243 44.5079 10.7984 12.4613 11.9015 13.2414 -58.5942 -58.5862 -58.0771
-58.0644 -57.418 -56.7931 -56.4223 45.8224 66.8346 -58.2496 -58.5255 -58.9215 -58.1567
-29.8004 -34.9973 -32.7025 -13.7103 -1.58419 -4.89547 -50.5401 -50.1863 -57.9583 -13.1088
0.147721 0.0612718 -13.3417 -58.2402 -56.7838 -51.2543 -12.4544 -10.1868 -3.68795 1.5729
-7.39779 -5.62766 -18.6641 -38.3662 -41.4435 -36.3553 -52.2269 -53.2262 -52.9688 -4.14982
-17.5712 -18.3155 -4.76691 -56.051 -51.9809 -56.0837 -3.58279 -9.30488 -16.6127 -11.6118
67.5358 46.8725 -54.1332 -54.2947 -56.7303 -56.6273 -56.1384 -53.6191 -57.0252 -53.1553
-55.9145 -58.8835 -59.0097 -59.0532 -32.0738 -77 -96.0153 -100.964 -103.193 -102.753
-48.5208 -50.1513 -54.1729 -48.2264 -49.8386 -98.0752 -99.4078 -71.2922 -34.3008 -58.3964
-59.2029 -58.8807 -56.2351 -57.1232 -57.1597 -57.086 -57.5116 7.13554 6.06013 8.95142
-56.0206 -55.6971 -55.9211 -55.4145 -55.5397 -55.7875 -56.1903 -55.0485 -55.0332 2.05007
1.84146 0.724207 1.23091 4.17949 4.55413 1.31334 -55.7972 -56.2738 -56.9094 5.81522
6.64688 2.78941 0.885186 3.15584 -32.0551 -38.0796 -37.3118 -31.6367 -54.4602 -54.9577
-57.8909 -57.5758 -54.889 -55.7387 -38.9253 -43.2735 -43.0972 -36.9597 -46.0793 -50.1093
-53.1697 -53.3194 -52.1794 123.596 131.456 146.797 146.885 -58.071 -56.139 -56.4123
-57.7849 -57.5887 4.4839 2.20413 3.12406 4.72239 -9.76405 -3.95019 -5.88732 -8.91407
-11.7951 -39.049 -36.8911 -25.6195 -27.3193 -32.1235 -39.0663 -24.7925 -24.8537 31.1127
41.2927 52.1327 37.9343 23.0772 19.3053 34.2747 26.1648 0.672219 0.830475 1.98872
34.0918 24.9114 17.1212 22.2354 2.89407 3.83802 4.47731 4.58633 3.67308 6.661
6.76468 4.57225 -9.33913 -8.21918 -1.37265 -10.2231 14.6884 9.14814 10.8233 -54.6036
-56.8738 -57.0043 -54.7979 -82.5723 -81.2916 -84.5308 -47.8746 -12.6552 -18.3064 -27.545
-55.9978 -52.8239 -55.3305 -56.4041 -73.9874 -73.7156 -58.2992 -59.5654 -49.4867 -47.9479
-50.2103 -50.3811 3.76264 3.82579 -0.595199 6.00949 5.66121 4.671 5.34287 5.75041
6.15431 -54.1061 -53.6186 -68.6875 -67.898 79.0221 94.1232 85.7248 112.12 106.433
88.8514 90.1634 161.856 164.19 153.371 121.637 98.4151 104.353 97.3117 117.651
-12.8877 -26.9518 -31.2706 -5.84686 -26.1344 -52.0669 -41.7424 -6.3225 93.7339 101.231
86.8125 78.281 96.7052 88.4027 107.615 148.47 158.22 167.409 165.145 106.629
102.907 159.638 -32.6649 -8.02041 -38.3328 -28.5584 -47.7363 140.21 140.079 115.603
110.583 110.245 115.509 139.604 138.987 108.135 167.235 170.841 172.009 172.301
173.711 186.649 186.838 174.817 173.269 -32.9386 -40.0576 -32.8966 -56.4148 -50.7847
-42.6457 -41.8886 -40.6303 -25.537 2.78926 -2.57747 -0.610923 173.389 175.334 187.19
172.361 186.506 187.15 175.221 172.171 179.599 181.763 170.113 168.881 179.896
167.879 171.097 182.421 -52.6159 -37.8691 -36.629 -55.6873 -55.7469 -55.8402 -36.4184
-46.2589 -36.5055 -36.949 -45.8532 -45.823 -3.41104 -9.27556 -25.1673 -25.1988 -32.8762
-43.5206 -32.9234 -32.6276 -42.9533 -21.1833 -18.8612 -20.6235 115.42 140.139 138.125
139.035 114.678 109.306 170.037 169.911 170.479 167.742 136.399 108.397 113.574
137.15 -57.0816 -54.1258 -52.7706 -52.5979 -55.6508 -46.1356 90.1976 93.4865 78.7653
-14.8752 -6.15846 -6.69416 -20.7959 54.5581 56.42 70.017 73.6645 -55.8083 -55.0506
-55.3556 -55.8069 -56.9903 -57.2387 -57.3805 -57.4781 -56.0449 -56.1324 -55.6922 -55.8078
-134.739 -109.221 -77.6657 -95.5644 -97.9232 -99.0478 -99.0398 -83.1603 -78.9066 -92.4702
-70.127 -84.6821 -132.43 -136.218 -128.276 -96.1467 -96.924 -54.6927 -54.138 -54.8226
-55.9545 -56.2485 -53.7719 -53.6862 6.83046 7.38676 13.7793 16.4172 13.8732 -50.9051
-50.1718 -45.694 -45.9358 -46.0197 -45.8149 -45.7875 -45.57 12.9121 12.6493 16.8335
8.26132 8.06205 9.63498 10.1161 10.1418 8.50419 7.31756 8.0744 12.3909 15.6965
13.7158 0.763546 -0.860622 -3.04684 7.03408 6.2037 5.07951 6.41203 7.14128 -52.4641
-53.3305 -56.2935 -55.6262 -48.6285 -49.5856 13.6678 15.6394 17.0508 -46.6908 -49.6206
-49.7521 -46.4024 -45.5518 11.3461 11.0899 11.1323 9.55091 6.85865 -6.94556 -5.71174
5.49374 6.30093 6.25393 -48.5049 -48.8237 146.516 148.541 140.964 136.999 113.42
118.359 125.764 121.249 184.61 185.886 182.187 178.429 -55.6202 -55.5567 -52.9682
-52.8759 169.639 183.359 185.058 172.996 174.452 186.573 171.031 182.145 169.627
179.28 -16.9205 -19.182 -23.9378 -28.173 -26.7812 -22.8894 -8.67216 -3.35063 -3.80849
-8.99268 -14.0105 -13.6252 -1.03724 -9.0689 -9.93837 -15.0219 -18.1516 -8.2228 -8.97993
-24.9545 -20.2307 -9.65699 -0.779569 -3.05214 6.06069 -3.47083 6.04326 6.81031 3.37864
3.91189 4.63447 4.19522 7.72252 6.09911 3.96262 5.81986 -18.907 -15.9826 -26.3157
-21.444 -56.3696 -58.0948 -58.6842 -58.5537 3.04498 3.11387 5.05943 5.53932 4.30381
4.90399 -14.5594 -40.302 -57.2183 -65.4283 -53.2518 -31.8994 -58.8621 10.7402 10.1969
10.2202 -2.36768 0.270105 11.9723 17.2099 9.5001 23.708 20.5919 10.4415 1.73441
6.8379 8.32408 13.1046 11.5488 6.7867 -53.438 -44.0197 -49.8655 -13.0506 -43.8758
-24.9352 -60.5841 -83.674 108.793 92.8871 106.276 108.472 112.819 111.97 172.884
172.008 173.259 172.575 171.277 185.965 185.966 185.2 -57.904 -58.1247 174.487
-56.139 -56.1374 -57.077 -57.2401 -56.9535 -55.6995 -148.938 -135.962 -135.861 -132.375
-156.514 -135.777 -132.265 -132.581 -119.376 -114.957 -80.2472 -73.1285 -73.4266 -70.8218
-119.364 -121.047 -56.7173 -55.7183 -54.6134 -57.0935 9.53007 7.1589 10.7064 8.24702
11.0223 12.0569 12.4285 13.4218 14.2116 -55.2509 -54.3236 -56.2567 -55.0562 -53.091
-52.8279 -52.9379 -54.8792 -5.92519 -0.446068 -1.38428 -4.55919 9.19128 9.55765 6.81511
5.8659 7.58189 9.55937 8.80523 6.73419 1.28792 8.1555 7.03996 6.87972 8.69634
10.43 9.24785 12.0852 11.3644 -54.6766 -55.1043 -55.1223 -55.2481 -55.3993 -55.2521
-54.7537 -52.7122 -54.0343 -54.043 -54.0615 -51.0308 -52.4171 -73.7363 -72.9691 -57.586
-59.8685 -77.5401 -68.3852 -77.4303 -123.856 -128.444 -136.069 -79.4789 -97.5277 -107.346
-80.3407 -98.8672 128.792 113.634 148.553 151.775 -54.5258 -53.7329 -54.8609 -54.8497
-53.0708 143.892 167.878 146.151 -48.9341 -48.102 -48.5403 -49.311 -49.1228 -49.1406
-49.0677 -47.5815 -8.07334 -9.35574 -11.886 -11.0031 -14.856 -17.0247 -19.1607 -16.9527
-17.8758 74.8239 85.5241 -58.4584 51.2631 76.5471 65.0127 75.6939 61.1552 14.1748
11.4002 45.7121 36.6786 8.33199 9.17806 3.64314 5.30336 5.11224 7.77998 6.71434
7.0809 7.46643 8.26975 -52.7032 -52.2619 -51.9847 -52.5745 -0.981453 -0.46741 -1.03752
2.30104 5.71378 5.15699 7.10791 6.53922 -50.9004 -51.3077 -51.0306 138.222 136.31
171.19 184.782 189.087 189.374 186.865 185.341 -55.6952 -55.3966 -55.7178 -55.5324
-53.1083 -45.5032 -46.3337 -46.9712 -46.1778 -46.5138 -47.8058 -56.033 -56.0581 -56.6522
-57.2458 -56.937 -56.9209 -57.0811 -56.6878 -54.9776 -115.683 -111.332 -134.276 -110.616
-133.937 -122.168 -123.532 -133.292 -56.1361 -57.4125 -55.8722 -54.4516 13.7448 12.3596
11.3344 12.5255 12.7542 13.4124 -36.7266 -36.2042 -31.3828 -30.8532 -41.7107 -42.2324
-46.3959 -46.0113 -51.0669 -51.1149 -45.4783 -52.0985 -51.7363 -6.1183 -0.905127 -11.3626
0.753076 2.18343 8.0365 7.56934 7.8924 4.34531 10.6956 7.37552 8.7832 10.2409
10.8832 10.7739 10.9155 12.6798 12.3517 2.45576 12.4097 14.8012 15.9631 3.89134
3.40248 3.13793 3.81603 -58.8776 -58.038 -52.8451 -56.4649 -44.6289 -44.1134 -40.0849
-44.4405 -45.8384 -49.885 -51.071 -49.5431 -49.7569 -49.5247 -47.0242 -52.1499 -47.1322
4.21781 -48.2443 -49.5185 141.041 131.859 129.445 129.507 129.887 114.416 107.009
188.664 188.136 187.141 -50.6675 -50.9919 -1.2537 -0.681911 0.34954 -29.5312 -30.4632
186.059 186.894 180.372 183.331 181.879 181.508 -33.2099 -29.0405 -3.01979 -7.64034
-5.77084 -3.05535 -24.6407 -13.4927 -10.0787 -13.288 -19.714 -4.58411 80.8798 56.5182
60.8523 21.0673 21.4349 68.0148 110.706 10.1519 7.19455 -2.21961 -2.48006 6.85697
7.6508 7.93874 6.13682 6.58801 24.5491 16.3155 -0.383989 19.7802 -1.70512 3.51407
8.18169 8.10463 68.0206 110.209 -54.6532 -55.7622 18.1372 91.7958 109.112 100.411
92.4641 108.078 109.189 126.596 134.336 143.209 -55.7481 81.8936 73.9267 50.7925
12.6135 18.6714 16.8427 -75.351 -56.7998 -56.7932 -56.7966 -55.2012 -55.1242 -59.8454
-55.3863 -59.8574 -60.4171 23.3922 -6.51397 5.97049 10.5822 10.8096 -1.35962 -1.46251
-2.56954 -55.5274 -54.0428 -0.981443 2.56882 2.87557 -57.4794 -56.9104 -56.0736 7.99698
7.68517 4.17752 -56.5593 41.6934 50.0582 -65.737 -58.1659 18.0445 15.5667 8.98727
6.90904 5.07575 8.51259 6.96044 -54.0742 -54.0382 -52.8553 -52.7767 -55.7633 -52.1443
-51.6621 -54.3755 -54.6835 -54.6666 -54.1513 -55.2556 -54.8281 -54.6863 -54.4262 4.50802
-51.6529 -57.7257 -56.6958 100.542 129.188 144.738 155.205 168.11 162.949 160.76
148.758 188.248 -52.7448 -53.6531 -51.9199 -7.37486 -10.4078 -3.21219 -49.624 -49.6483
-49.622 -49.8931 -53.0798 -47.1599 -48.6995 -47.4826 -46.9852 -47.6861 28.9071 20.3408
-112.124 -119.72 -119.577 -120.211 -120.554 -73.9043 -96.4806 -73.9078 13.4469 17.0807
-10.8386 12.0559 11.5001 -5.49842 -7.06656 4.07623 2.46911 0.956944 0.62127 -0.648602
-2.26938 -1.01735 4.12383 4.51878 0.595274 2.83231 4.49103 2.39173 1.30647 13.3905
17.6875 -49.9951 5.51816 12.7732 8.53502 16.4659 8.52686 11.1951 14.1982 15.9662
4.79252 5.01254 6.50881 5.92733 -2.0194 -3.9319 -6.17267 -6.0729 4.92952 1.75779
4.44247 9.45345 15.3162 16.5106 8.24891 5.72284 3.12094 2.8091 7.21883 10.6615
11.312 11.9504 11.0908 5.7616 -3.43528 5.63725 -2.68495 3.29079 -3.44426 2.5318
10.9994 8.33615 12.374 7.01207 9.47658 11.398 10.7987 10.499 7.96412 8.62974
9.15026 9.39943 7.93707 7.39537 7.40384 6.06047 -5.38202 -8.87521 -7.09859 6.53529
5.93508 7.99513 6.30713 -9.08597 -10.8376 1.16818 7.10553 5.9479 -1.57415 5.73331
-136.264 -137.292 -137.592 10.2867 -55.5473 -54.5059 -54.5538 5.26028 9.91643 5.34602
8.40703 11.0294 -55.7051 -55.6758 -55.0331 -54.7189 -60.9099 -60.4041 -60.8893 -68.9444
-115.901 -119.709 -113.593 -120.424 -48.8878 -49.4124 -47.3813 -47.0837 -47.3498 -47.0575
-14.6435 -14.6428 -17.0582 -52.5152 -52.3304 -52.0883 5.16274 1.55148 5.01405 4.98597
-51.888 -52.3236 -52.4471 141.802 151.145 -55.1909 -50.6567 13.4271 13.9893 11.5839
7.23097 11.4673 18.7038 4.24999 3.36725 4.70465 3.70599 -53.1939 -57.1846 -57.0037
-55.2245 7.78303 15.0649 11.1195 4.11435 4.26167 10.0851 8.83653 9.52337 8.63181
10.4122 12.4241 10.2747 5.85885 8.59879 8.24759 -54.0499 -50.0704 -48.4467 91.2568
80.2954 84.2523 66.7934 72.7747 -4.7795 -2.90199 0.339188 -1.44238 7.6689 8.1774
7.72103 8.30217 8.06251 7.56111 7.10808 116.852 106.811 94.771 -73.8323 -57.2348
-55.9171 -54.7681 -54.577 -54.2231 -54.1935 163.484 139.766 161.893 162.003 7.75634
4.63537 10.709 11.422 7.23791 8.56507 7.46924 6.93253 6.1893 2.78468 -2.34225
4.79846 5.43746 6.02023 4.38514 6.68476 14.4481 9.06313 -12.6801 15.5986 14.2731
7.64832 10.7558 15.9721 9.15079 -12.5531 -13.4682 -11.5503 -2.77189 -4.77484 -13.0219
7.26251 5.35124 -14.5692 -16.1736 7.25237 4.89448 -0.940822 -3.78179 -54.9399 -45.8362
13.1655 1.97401 0.312328 -0.0791341 6.03161 5.59043 6.52464 6.1127 6.06899 5.65075
0.39055 6.31692 6.94976 -0.345606 5.77203 4.79675 7.23698 6.73132 6.15796 106.229
86.7034 122.041 123.827 5.2341 4.96379 3.52147 -55.1533 5.16374 6.1405 5.91926
-9.53962 -12.5004 -0.188738 6.31484 6.80155 5.45617 8.13473 5.26494 6.95772 3.95338
37.6509 -53.1136 -55.1011 -54.6072 -54.5626 -54.6336 -2.90353 -4.27084 -12.4358 -12.3055
-12.3275 -3.31886 9.44243 3.2083 6.03654 7.09777 2.66413 2.45423 0.194519 -0.762895
-10.7565 -5.10546 -3.99865 -11.1245 -4.05352 -11.9867 5.666 -11.2312 -12.2635 -2.34238
1.27118 6.42311 6.43782 5.86415 8.89312 0.336125 6.7245 -3.053 -1.03134 4.39733
-0.67716 7.27924 4.89199 -9.84773 9.05497 -0.57458 6.2191 1.10006 1.48671 4.87968
5.23971 4.31746 5.03878 3.21145 7.70309 8.94684 5.51631 6.12377 1.03285 3.49849
11.1135 5.60706 0.900016 -0.48785 3.69347 173.163 176.985 176.119 181.032 169.132
168.103 172.683 179.954 180.946 69.9509 74.1226 55.3653 -56.1041 -41.459 -38.5798
-36.8217 -30.8911 -43.7699 -51.8445 -51.493 -55.2342 -46.7626 100.809 154.484 162.12
155.261 147.003 -56.5579 -56.1529 -56.4978 -56.2628 -55.7803 -56.222 -54.864 -55.1678
-55.0095 4.07904 -0.218828 171.244 -18.3009 186.021 190.268 189.415 -51.2889 -47.2685
182.756 185.888 186.063 -16.4039 -51.0311 85.283 -54.9591 -55.0917 -55.3518 -55.3185
-49.4282 189.39 -2.30871 189.507 185.527 189.101 7.38806 -64.2287 110.708 110.022
-55.8542 4.61583 -51.6917 -52.981 -51.8047 -137.772 138.75 -54.801 159.233 -51.9262
-120.634 -120.552 72.3068 7.00015 2.6713 168.091 164.704 -15.3948 139.852 191.112
190.007 185.411 189.461 190.796 189.791 172.801 191.167 186.787 189.961 191.202
0.614204 0.609742 0.635051 0.704125 0.917921 1.62147 2.2067 -3.98641 1.35389 0.0252354
-4.09951 -5.8691 0.409045 0.0902317 -0.00164654 0.00537838 0.010498 0.00586366 0.00116455 -0.000519795
-0.000298125 0.000220567 0.0011285 0.00060856 -54.0334 -52.3085 -133.889 -134.444 -47.9203 -48.3771
-49.041 -47.7631 -48.2618 -48.9682 -49.621 -47.2707 -95.0381 -74.6923 -48.7592 -47.1139
-74.13 -48.6836 -51.1458 -51.5008 -50.6187 -99.5211 -111.144 -129.394 -119.707 -119.528

U 3 2021 float
20.0062 -0.0456749 -0.216173 20.0439 -0.0306142 -0.0741231 19.929 -0.00637279 -0.0965792 19.9354 -0.055627
-0.607295 20.0174 -0.059158 0.0399879 20.0177 -0.0590536 0.0400209 20.1681 -0.0779964 0.0575723
20.2329 -0.0861546 0.0656218 20.2785 -0.0910834 0.149515 20.2908 -0.115608 0.264084 20.2097
-0.1169 0.208798 19.9546 -0.0471405 0.0198667 19.9966 -0.0545053 0.0183555 20.0037 -0.0527759
0.00696801 19.8534 -0.0245666 0.0176987 19.8522 -0.0213546 0.0141556 20.0059 -0.0524857 0.00188836
19.8546 -0.0199523 0.00967346 20.0044 -0.0516726 0.000514838 19.8537 -0.0183168 0.00877626 20.0026
-0.0508521 -1.32048e-05 19.8523 -0.0167749 0.00847591 20.0011 -0.0500921 -0.000291321 19.8512 -0.0154478
0.00824148 19.9996 -0.0494089 -0.000470506 19.8501 -0.0142931 0.00802651 19.998 -0.0487529 -0.000594623
19.849 -0.0132395 0.00784005 19.9963 -0.0481097 -0.000691681 19.8479 -0.0122824 0.00764243 19.9946
-0.0474804 -0.000727037 19.8469 -0.0114045 0.00755406 19.9927 -0.0468297 -0.000817487 19.8458 -0.0104805
0.00727792 19.8453 -0.0100009 0.00697835 19.9924 -0.0466198 -0.000858703 19.9996 -0.000340918 3.12845e-05
20 0 0 20 0 0 19.9996 -0.000340971 7.86743e-05 19.9983
-0.000787482 9.38487e-05 19.9984 -0.000796948 0.000278653 19.9942 -0.00154915 0.00036807 19.9941 -0.00151398
0.0009997 19.9788 -0.00279243 0.000336366 19.9796 -0.00311558 0.00357802 19.9464 -0.00543887 -0.00906237
19.9362 -0.00619611 -0.00796644 19.9389 0.00231282 -0.0143301 19.9276 -0.00539514 -0.0295153 19.906
0.00529953 -0.0610201 20.2334 -0.072454 0.00180481 20.0485 -0.0287708 -0.056725 20.2356 -0.0715356
0.00506503 19.9273 -0.0888395 0.0305208 20.0244 -0.118091 0.0819253 20.2326 -0.0861234 0.065102
19.8553 -0.0297622 0.0234305 19.3078 0.119585 0.0102227 19.3399 0.11703 0.0113297 19.368
0.111328 0.0113767 19.3891 0.107043 0.0120531 19.4073 0.103262 0.0125513 19.4242 0.0996815
0.012722 19.4401 0.0962992 0.0127234 19.4551 0.093118 0.0126485 19.4693 0.0900853 0.0125057
19.4824 0.0872118 0.0123897 19.4971 0.0844078 0.0121057 19.5058 0.0829692 0.0118445 20
0 0 19.9996 -0.000341525 0.000137308 19.9985 -0.000795246 0.000490242 19.9945 -0.0015199
0.0017189 19.9801 -0.00323779 0.00603306 19.9197 -0.00874458 0.0107367 19.9194 -0.007913 0.00100667
19.8498 -0.0165152 -0.0957704 19.7932 -0.0204396 -0.0681565 19.955 -0.0506399 -1.02597 20.4347
-0.0668921 -0.937394 20.2162 -0.0530417 -0.510277 19.9302 -0.055641 -0.636813 20.3094 -0.163102
0.453656 20.3098 -0.163983 0.457119 20.0986 -0.248829 0.582113 19.9887 -0.238145 0.301091