# vtk DataFile Version 2.0
sampleSurface
ASCII
DATASET POLYDATA
POINTS 2021 float
-0.500032 0 0.11501 -0.499951 3.38813e-21 0.0392727 -0.789037 8.47033e-21 0.120673 -0.500013 -1.35525e-20
0.193965 1.00003 0 0.0485099 1.00003 0 0.0478584 0.475202 0 0.0353615
0.250044 1.41878e-20 0.0305359 0.2506 -5.42101e-20 0.117067 0.251301 0 0.203885 0.364989
0 0.203772 1.75002 0 0.113255 1.75002 0 0.0564279 2.50001 6.89146e-18
0.059229 2.21354 0 0.250758 2.50001 0 0.252875 3.25001 -3.47927e-17 0.0598775
3.25001 -1.69407e-21 0.253888 4.00001 5.60566e-18 0.0599857 4 0 0.253986 4.75
-1.79088e-17 0.0599988 4.75 8.47033e-22 0.253998 5.5 -2.79246e-17 0.0599999 5.5 -4.23516e-22
0.253999 6.25 1.01187e-17 0.06 6.25 0 0.254 7 2.93732e-17 0.06
7 0 0.254 7.75 -2.65294e-17 0.06 7.75 0 0.254 8.5
1.8923e-17 0.06 8.5 0 0.254 9.25 -2.88552e-17 0.06 9.25 -5.29396e-23
0.254 10 -2.64698e-23 0.254 10 0 0.06 -4.24997 0 0.0599042
-5 0 0.0599861 -5 0 0.253986 -4.24997 0 0.253912 -3.49995
0 0.0593815 -3.49994 0 0.253441 -2.74993 0 0.0570188 -2.74991 0
0.251316 -1.99991 0 0.0492276 -1.99987 0 0.242776 -1.24992 -1.69407e-21 0.03
-1.24985 1.23328e-17 0.222327 -1.24989 3.38813e-21 0.125756 -0.874924 2.08116e-17 0.03 -0.874929
0 0.122356 -0.124951 -8.47033e-22 0.03 -0.499941 0 0.03 -0.124922 -8.47033e-22
0.0385291 1.00021 0 0.231242 0.625368 0 0.203537 0.25004 -2.11758e-22 0.03
1.75003 0 0.247334 1.92873 1.69407e-21 0.441438 2.50001 0 0.447397 3.25
-1.69407e-21 0.447898 4 0 0.447986 4.75 0 0.447997 5.5 -4.23516e-22
0.447999 6.25 4.23516e-22 0.447999 7 0 0.448 7.75 -1.05879e-22 0.448
8.5 0 0.448 9.25 0 0.448 10 -2.64698e-23 0.448 -5
-8.47033e-22 0.447985 -4.24997 0 0.447919 -3.49993 0 0.4475 -2.74988 0
0.445609 -1.9998 6.77626e-21 0.437758 -1.24969 1.61411e-17 0.417681 -1.24976 -6.77626e-21 0.31973
-0.875161 7.70461e-18 0.216228 -0.875403 0 0.312476 -0.499924 -8.74138e-19 0.250039 -0.312433
0 0.250037 -0.312436 0 0.200025 -0.499924 0 0.200026 0.250062 3.38813e-21
0.24921 0.250039 -1.69407e-21 0.250046 0.250032 0 0.300069 0.437526 3.05948e-18 0.300066
0.625026 0 0.30005 1.00072 -8.23994e-18 0.326497 1.00196 0 0.423 1.75013
0 0.439575 1.75013 1.77877e-20 0.448245 1.00135 0 0.537141 1.00002 0
0.61834 1.74999 2.71051e-20 0.633055 2.49999 -3.38813e-21 0.641448 3.25 0 0.641907
4 -1.69407e-21 0.641985 4.75 -8.47033e-22 0.641996 5.5 -4.23516e-22 0.641998 6.25
0 0.641999 7 0 0.641999 7.75 0 0.642 8.5 5.29396e-23
0.642 9.25 -5.29396e-23 0.642 10 0 0.642 -5 0 0.641985
-4.24997 -1.69407e-21 0.641926 -3.49993 0 0.641557 -2.74988 0 0.639897 -1.99989
6.77626e-21 0.63382 -1.25099 2.55465e-18 0.614606 -1.25 -2.71051e-20 0.515981 -0.878244 0
0.50789 -0.875961 2.71051e-20 0.459694 -0.875609 0 0.410432 -0.498432 0 0.400603
-0.498071 -1.70762e-18 0.413126 -0.450805 0 0.413349 -0.45095 0 0.400955 0.250009
1.89735e-19 0.412703 0.25 2.71051e-20 0.425212 0.296872 1.00289e-18 0.425187 0.343754 -2.71051e-20
0.425153 0.343763 0 0.400146 0.250006 0 0.400175 1.00162 1.41488e-17 0.520353
-2 4.23516e-22 0.820145 -2.09502 -2.11758e-22 0.830091 -2 0 0.829497 -1.25123
0 0.813251 -1.25126 0 0.713737 -1.25101 6.77626e-21 0.62198 1.00059 0
0.714169 1.00094 0 0.809205 1.75018 0 0.82775 2.5 0 0.835521
3.25 0 0.835917 4 -1.69407e-21 0.835986 4.75 -8.47033e-22 0.835996 5.5
0 0.835998 6.25 0 0.835999 7 0 0.835999 7.75 0
0.836 8.5 0 0.836 9.25 0 0.836 10 0 0.836
-5 -8.47033e-22 0.835986 -4.24997 0 0.835935 -3.49995 0 0.835616 -2.74991
0 0.83419 -0.970118 0 0.703382 -0.87455 0 0.699864 -0.874264 -2.71051e-20
0.649852 -0.874033 -2.71051e-20 0.599873 -0.49698 0 0.599585 -0.497345 -9.21572e-19 0.612046
-0.450014 0 0.611892 -0.44938 2.71051e-20 0.599454 -2.00002 0 0.84097 -1.84639
-3.38813e-21 1.02215 -1.25185 0 1.01276 -0.896512 -3.38813e-21 0.900668 -0.908183 6.77626e-21
0.801076 -0.904022 -1.86347e-20 1.00093 0.624925 0 0.799916 0.249931 0 0.799891
0.249978 0 0.899916 0.249997 0 0.999939 0.999987 0 0.999957 1.75061
-2.1684e-19 1.02409 2.50003 0 1.0296 3.25 -1.69407e-21 1.02993 4 0
1.02999 4.75 0 1.03 5.5 0 1.03 6.25 2.11758e-22 1.03
7 0 1.03 7.75 0 1.03 8.5 5.29396e-23 1.03 9.25
0 1.03 10 0 1.03 -5 0 1.02999 -4.24998 0
1.02994 -3.49996 -8.47033e-22 1.02968 -2.74996 0 1.02849 -2.00026 0 1.02458
-0.87482 0 0.799893 -0.87491 0 0.899919 -0.49993 0 0.799862 -0.499958
7.6233e-19 0.849889 -0.312476 0 0.849885 -0.312472 0 0.799853 -1.25001 8.04681e-21
1.19601 -0.499979 5.29396e-23 1.10737 -0.731886 2.11758e-22 1.19997 -0.499981 0 1.19997
-0.124987 0 0.999933 -0.477759 -5.29396e-23 0.999933 -0.487556 -1.45584e-22 1.09995 0.250008
0 1.19997 1 0 1.19997 1.7507 0 1.22203 2.50003 -1.35525e-20
1.22368 3.25 0 1.22394 4 0 1.22399 4.75 4.23516e-22 1.224
5.5 0 1.224 6.25 2.11758e-22 1.224 7 0 1.224 7.75
1.05879e-22 1.224 8.5 0 1.224 9.25 0 1.224 10 2.64698e-23
1.224 -5 4.23516e-22 1.22399 -4.24999 -4.23516e-22 1.22395 -3.49998 0 1.22374
-2.75001 0 1.22279 -2.00077 0 1.21965 -1.24997 4.23516e-22 1.19997 -0.499969
-5.29396e-23 0.999933 -0.874942 0 0.999936 -0.499979 -1.32349e-23 1.09995 -2.75001 0
1.36967 -3.18711 4.23516e-22 1.41751 -2.75001 4.23516e-22 1.4171 -2.00072 3.38813e-21 1.29692
-2.00065 0 1.41474 -1.25823 6.35275e-21 1.40014 -0.980416 0 1.39998 -0.499986
0 1.39998 0.250009 0 1.39998 1 0 1.39998 1.75054 0
1.41682 2.50002 -1.35525e-20 1.41776 3.25 0 1.41796 4 4.23516e-22 1.41799
4.75 0 1.418 5.5 0 1.418 6.25 0 1.418 7
0 1.418 7.75 0 1.418 8.5 0 1.418 9.25 0
1.418 10 0 1.418 -5 0 1.41799 -4.24999 0 1.41797
-3.49999 -4.23516e-22 1.41781 -1.24998 0 1.39998 -2.80392 1.32349e-23 1.61143 -2.75
-1.32349e-23 1.6114 -2.0003 0 1.60983 -1.25396 2.64698e-23 1.60004 -1.12789 2.64698e-23
1.59999 -0.49999 1.05879e-22 1.59999 0.250008 0 1.59999 1.00001 4.23516e-22 1.59999
1.75038 0 1.61122 2.50002 0 1.61184 3.25 -4.23516e-22 1.61197 4
-4.23516e-22 1.61199 4.75 0 1.612 5.5 0 1.612 6.25 0
1.612 7 0 1.612 7.75 5.29396e-23 1.612 8.5 2.64698e-23 1.612
9.25 -1.32349e-23 1.612 10 -1.32349e-23 1.612 -5 0 1.61199 -4.24999
0 1.61198 -3.49999 0 1.61187 -1.24999 0 1.59999 -2.75 -1.32349e-23
1.63714 -2.64195 -2.11758e-22 1.80559 -2.00012 -8.47033e-22 1.80492 -1.25741 0 1.80004
-1.19082 -7.94093e-23 1.8 -0.499992 1.05879e-22 1.79999 0.250006 2.11758e-22 1.79999 1
0 1.8 1.75023 0 1.80561 2.50001 3.38813e-21 1.80592 3.25 0
1.80599 4 0 1.806 4.75 2.11758e-22 1.806 5.5 0 1.806
6.25 0 1.806 7 0 1.806 7.75 0 1.806 8.5
2.64698e-23 1.806 9.25 0 1.806 10 0 1.806 -5 0
1.806 -4.25 -2.11758e-22 1.80599 -3.49999 0 1.80594 -2.75 -1.05879e-22 1.8057
-1.24999 0 1.8 -2 -4.76456e-22 1.98532 -1.20969 -1.65436e-23 2 -0.499993
0 2 0.250006 0 2 1 0 2 1.75 0
2 2.5 0 2 3.25 0 2 4 0 2
4.75 -1.05879e-22 2 5.5 0 2 6.25 0 2 7
5.29396e-23 2 7.75 0 2 8.5 0 2 9.25 0
2 10 -1.32349e-23 2 -5 2.21817e-18 2 -4.25 1.05879e-22 2
-3.49999 0 2 -2.74999 0 2 -1.99999 -5.29396e-23 2 -1.24999
3.30872e-24 2 0.0956945 -5.42101e-20 0.203879 0.0632748 0 0.203876 0.0625511 0
0.250042 -0.403589 6.77626e-21 0.40138 -0.405779 7.7927e-19 0.38799 -0.406379 -6.77626e-21 0.375196
-0.499567 -1.35525e-20 0.375265 0.250006 -6.50521e-19 0.375144 0.156247 0 0.375155 0.156237
9.41901e-19 0.400212 0.203129 0 0.400201 0.249796 0 0.59991 0.249852 -1.0842e-19
0.587433 0.202953 0 0.587417 0.202888 6.50521e-19 0.599901 0.625121 -6.77626e-21 0.499953
0.717439 6.77626e-21 0.504955 0.625095 6.77626e-21 0.475379 0.343596 1.0842e-19 0.599918 0.343639
0 0.574939 0.296781 0 0.574964 0.249926 0 0.574977 0.62499 -4.2826e-18
0.549927 0.624917 4.55365e-18 0.599925 0.203133 0 0.412725 -0.449046 0 0.587135
-0.496581 5.42101e-20 0.587161 0.625036 -9.32414e-18 0.40006 0.625067 1.13164e-18 0.450032 0.249704
0 0.624881 0.155871 0 0.599866 0.155839 1.95156e-18 0.624853 0.249886 1.35525e-20
0.749873 0.062411 0 0.749846 0.0624478 -4.26227e-18 0.799869 -0.312472 0 0.749804
-0.499901 -3.38813e-21 0.749824 -0.691227 0 0.30453 -0.499912 3.02221e-18 0.300065 -0.875784
-3.11708e-18 0.361353 -0.592465 -2.71051e-20 0.40036 -0.499854 0 0.350135 -0.687111 1.35525e-20
0.350117 -0.68656 -2.71051e-20 0.40021 0.437526 -1.35525e-20 0.400108 0.437522 6.77626e-21 0.350086
0.250015 -2.51399e-18 0.35011 0.625027 3.38813e-21 0.350064 -0.592287 0 0.425286 -0.498048
0 0.425444 -0.873902 5.42101e-18 0.54992 -0.496663 0 0.574746 -0.591532 0
0.574798 -0.591729 0 0.599734 -0.149108 0 0.406489 -0.149477 -5.29396e-23 0.403592
-0.149678 0 0.406489 -0.451876 -2.1684e-18 0.499977 -0.451579 0 0.487563 -0.498366
0 0.487552 -0.498515 -1.0842e-19 0.499993 0.437553 0 0.450075 0.437532 -6.07153e-18
0.425113 0.254621 -1.25361e-19 0.496697 0.26485 -5.42101e-20 0.498023 0.264831 0 0.496529
0.254636 -2.30393e-19 0.49668 0.570241 0 0.499932 0.437665 -2.71051e-20 0.474991 0.437859
-2.71051e-20 0.49988 0.437372 -1.0842e-19 0.599915 0.249722 3.25261e-19 0.649874 0.43732 -5.42101e-20
0.649899 0.624872 0 0.649914 0.624883 -3.95734e-18 0.699913 0.43734 6.83047e-18 0.699894
0.249817 0 0.699869 -0.592227 0 0.624743 -0.498071 -2.71051e-20 0.624658 -0.499769
6.77626e-21 0.69979 -0.687025 0 0.699824 -0.150854 -1.03677e-18 0.599678 -0.151059 -6.77626e-21
0.605522 -0.127339 6.77626e-21 0.605681 -0.127867 0 0.599582 -0.406139 -4.40457e-20 0.699754
-0.406113 0 0.674749 -0.499634 0 0.674774 -0.18433 -4.23516e-22 0.674527 -0.163626
-4.23516e-22 0.678958 -0.165125 0 0.674537 -0.171868 4.23516e-22 0.674524 -0.14924 3.34737e-19
0.400169 -0.125737 0 0.400165 -0.12551 0 0.393854 -0.149076 -2.11758e-22 0.393877
-0.499925 -2.61564e-18 0.325088 -0.406241 0 0.325087 -0.4062 0 0.300069 -0.124901
0 0.300062 -0.218633 -3.27294e-18 0.299673 -0.218596 1.35525e-20 0.324664 -0.124851 0
0.325085 -0.126061 7.86047e-19 0.406473 -0.0785222 1.30782e-18 0.400166 -0.126118 3.38813e-21 0.41275
-0.0785648 0 0.412729 0.240678 1.0842e-18 0.500153 0.252614 -2.1684e-19 0.498317 0.252386
1.0842e-19 0.496231 0.241035 0 0.496114 0.228892 -1.35525e-20 0.496204 0.228835 6.77626e-21
0.498715 0.229819 2.71051e-20 0.500074 0.25248 0 0.499935 0.240657 -1.6263e-19 0.500957
0.264863 0 0.500154 0.264689 0 0.500951 0.437443 0 0.549896 0.437406
[...]
POINT_DATA 2021
FIELD attributes 2
p 1 2021 float
2.01281 1.4408 2.37115 4.36691 0.0586937 0.0565816 -4.2034 -6.04123 -7.68929 -6.16352 -4.31988
0.496235 0.464149 0.111908 0.326573 0.17493 0.00348218 0.027231 0.00554078 0.0144697 0.00956137
0.0156007 0.00463266 0.00984761 -0.000119555 0.00434787 -0.00169251 0.00213734 -0.0012842 0.00200653 -0.000577129
0.00208547 0.000533456 0.00333199 0 0 0.614287 0.609837 0.609685 0.614001 0.635154
0.634257 0.705083 0.70195 0.927116 0.923815 1.64151 1.76298 1.77836 2.23693 2.47746
-4.05317 1.37071 -4.10593 0.650181 -0.111146 -6.03101 0.571913 0.44187 0.189437 0.0290067
0.00718656 0.00938387 0.00551023 0.000934815 -0.000695739 -0.000302893 -0.000384386 0.00269707 0 0.609251
0.613229 0.63184 0.692911 0.902672 1.95659 2.02953 3.12906 3.87325 7.3298 -3.28949
-1.04498 4.58702 -5.72765 -5.71978 -2.26127 0.339113 0.826038 1.029 0.923746 0.520779
0.516587 0.845674 0.880082 0.427098 0.166966 0.0227526 0.00214328 0.00639703 0.00423523 0.000309846
-0.00104831 -0.000458982 -0.000258765 0.00288159 0 0.608558 0.612037 0.628201 0.680216 0.862189
1.85011 2.13608 5.13388 5.58815 4.82592 32.5774 36.4612 52.0319 45.9896 4.75766
4.90197 3.38642 3.42031 2.68651 4.0881 0.838559 0.808114 0.787652 0.8054 1.39627
1.78526 1.84531 0.992414 0.482528 0.349693 0.12769 0.0135783 0.000508079 0.00696195 0.00609662
0.00247966 0.00105891 0.00141615 0.00204815 0.00350357 0 0.60768 0.610554 0.623764 0.665331
3.25091 3.74914 4.68116 4.75952 34.3499 32.6873 44.6073 50.7492 0.801567 0.781214
0.939501 1.70143 2.6259 1.14145 0.0815063 -4.87434 -5.30017 -2.74847 -0.228494 0.19102
0.0734127 -0.00540363 -0.0108179 -0.000922096 0.000813121 -0.00132758 -0.0018711 -0.000928871 0.000256055 0.0012707
0 0.606709 0.608929 0.618933 0.649344 0.740227 2.74539 1.73116 5.18352 3.28868
0.552379 -0.682986 0.697701 0.310178 0.312453 0.142349 -1.7106 0.671968 0.280639 -0.974642
-0.394033 0.0978125 0.0648655 -0.00285441 -0.0108632 -0.00106325 0.00136284 -0.000511762 -0.00103103 -0.00011022
0.00102225 0.00157099 0 0.605742 0.607317 0.614082 0.633213 0.676748 0.692468 0.821976
1.15832 0.32363 0.621983 0.613287 0.618357 0.656494 0.625603 0.566517 0.383768 0.0592347
-0.564805 -0.377926 0.046048 0.0593328 -0.00430988 -0.0151244 -0.00441762 -0.000857239 -0.00222424 -0.00248823
-0.00140027 -0.000157673 0.000454734 0 0.604877 0.605859 0.609657 0.565861 0.606584 0.606621
0.590528 0.495392 0.426845 0.0769475 -0.435766 -0.349076 -0.00112253 0.0480712 -0.00787995 -0.018783
-0.00650683 -0.00184325 -0.00280188 -0.00288196 -0.00170175 -0.000404851 0.000269195 0 0.604196 0.604684
0.606112 0.494886 0.605642 0.595051 0.570211 0.457753 0.427413 0.0863141 -0.365485 -0.333144
-0.0276369 0.0429658 -0.00828882 -0.0198741 -0.00726528 -0.0022558 -0.00311168 -0.00312929 -0.00190868 -0.00059268
0.000124079 0 0.603757 0.603901 0.603769 0.599232 0.456629 0.563942 0.425265 0.0894203
-0.343103 -0.327994 -0.035934 0.0414293 -0.00838705 -0.0202948 -0.00762633 -0.00248332 -0.00326706 -0.0032238
-0.00196347 -0.000630352 0.00010727 7.74467e-05 0.603602 0.603619 0.602925 0.596713 0.563432 0.444337
-10.2814 -11.1388 -11.7878 70.5048 60.1017 43.9128 29.6791 2.92985 1.69849 4.4057
5.06371 4.17928 4.59404 6.23308 5.45107 2.01918 1.72955 2.13367 2.98058 3.68804
3.38543 3.99904 2.24283 1.91177 6.04485 56.2388 39.4367 1.92925 2.25144 3.68564
4.80343 2.22326 -4.51461 -11.1921 -9.83766 -3.20549 8.45628 7.0053 11.9092 4.74964
17.4643 20.8259 9.13769 10.5173 2.57629 1.49816 0.997693 1.6529 19.7305 36.9165
5.61164 39.6378 20.3263 18.8165 -58.6978 -58.4737 -58.6946 68.4583 68.372 47.5594
44.7934 3.39037 3.09858 -5.03505 0.325225 0.175626 -5.08468 2.58063 3.9596 3.93124
2.86721 1.86526 1.76685 1.62738 0.95067 0.766086 -1.3401 17.0022 28.0968 13.2874
7.27465 -56.5415 -56.3261 -58.7276 -58.6597 13.8615 19.0953 18.474 -46.3067 -42.7433
-44.4213 -45.1606 -58.2127 -57.4915 -57.4857 -57.6219 16.6185 15.9024 12.0167 -29.3476
-27.9479 -45.3303 -37.0379 -58.8283 -45.9957 -58.6742 -48.1616 10.9968 4.2797 10.5005
11.8467 9.09595 9.37397 9.66326 4.50108 11.1206 0.881478 0.710504 3.724 3.48196
4.05784 4.32006 47.751 68.3398 -58.8015 -56.4801 6.49203 11.13 -51.3615 -52.6674
-58.4078 4.45496 6.28428 6.44641 6.47597 -31.4277 -40.025 -49.4741 -29.8228 64.409
60.7952 41.6578 41.4059 -44.0437 -56.0119 -11.5209 -8.58832 -0.443638 -24.5298 -42.4056
42.9782 44.3037 64.299 66.4711 -51.6901 -49.8461 -50.6352 0.370179 -9.60975 -12.669
-11.6649 -21.6492 -24.821 -57.7735 44.039 21.8516 22.1449 11.702 12.0191 12.1915
13.1428 22.0213 44.5009 10.7956 12.4586 11.8994 13.2394 -58.6577 -58.6522 -58.1655
-58.1529 -57.4446 -56.8217 -56.4629 45.819 66.8301 -58.3149 -58.6102 -58.9936 -58.2225
-29.8612 -35.1167 -32.864 -13.7925 -1.61659 -4.93018 -50.7046 -50.3676 -58.048 -13.2061
0.10041 0.0270147 -13.4338 -58.3026 -56.8532 -51.3688 -12.5492 -10.2738 -3.75347 1.51981
-7.27318 -5.48443 -18.4994 -38.2422 -41.3719 -36.2633 -52.1009 -53.1361 -52.8687 -3.98091
-17.3737 -18.1301 -4.60605 -56.0021 -51.8661 -56.0162 -3.43377 -9.14018 -16.4372 -11.7036
67.5244 46.8639 -54.2665 -54.4343 -56.7895 -56.6594 -56.1871 -53.7427 -57.0747 -53.0618
-55.9416 -58.9296 -59.0474 -59.092 -32.2381 -77.1876 -96.2265 -101.225 -103.644 -103.216
-48.8558 -50.1187 -54.1319 -48.1932 -49.7428 -97.9644 -99.3334 -71.2253 -34.2327 -58.4631
-59.2544 -58.9148 -56.2684 -57.1552 -57.2289 -57.1582 -57.5662 7.1033 6.01611 8.90979
-56.0452 -55.7399 -55.9582 -55.4524 -55.5668 -55.8446 -56.2655 -55.1454 -55.129 2.03634
1.83292 0.710161 1.2066 4.31084 4.66379 1.4443 -55.8483 -56.2936 -56.9608 5.77411
6.60644 2.75785 0.857034 3.11887 -32.1708 -38.188 -37.4557 -31.7948 -54.6094 -55.0878
-57.9425 -57.628 -54.9747 -55.7936 -38.918 -43.2813 -43.051 -36.8977 -46.0526 -50.0915
-53.3139 -53.4625 -52.268 123.561 131.419 146.768 146.857 -58.1591 -56.1265 -56.4135
-57.831 -57.6576 4.39404 2.11279 2.99829 4.59005 -9.6696 -3.85241 -5.82082 -8.86062
-11.7512 -39.0761 -36.8288 -25.5235 -27.2871 -32.1064 -39.0983 -24.9719 -24.979 31.072
41.2425 52.0899 37.9133 23.0632 19.1477 34.1843 26.0851 0.666429 0.824566 1.98462
34.1051 24.9248 17.1498 22.269 2.89281 3.826 4.47514 4.58938 3.796 6.71672
6.83828 4.70361 -9.3829 -8.27312 -1.38527 -10.2518 14.6835 9.14483 10.82 -54.6213
-56.8114 -56.9417 -54.8158 -82.6773 -81.3977 -84.6355 -47.9407 -12.7389 -18.3628 -27.6803
-55.979 -52.7913 -55.3122 -56.4024 -73.9537 -73.6926 -58.2682 -59.5302 -49.6345 -47.8989
-50.1548 -50.3156 3.7646 3.82431 -0.61342 6.00136 5.65853 4.67476 5.34564 5.72888
6.14375 -54.047 -53.6349 -68.7949 -68.01 79.0276 94.132 85.7347 112.124 106.438
88.8544 90.1648 161.858 164.194 153.376 121.638 98.4144 104.351 97.3124 117.653
-12.9069 -26.9662 -31.2987 -5.87271 -26.1418 -52.0342 -41.7123 -6.34392 93.692 101.194
86.782 78.2486 96.6835 88.3767 107.583 148.447 158.203 167.395 165.132 106.613
102.888 159.619 -32.5232 -7.90599 -38.2133 -28.4428 -47.6024 140.201 140.071 115.595
110.574 110.239 115.502 139.597 138.982 108.131 167.234 170.842 172.006 172.299
173.704 186.644 186.833 174.812 173.263 -33.124 -40.2286 -33.0754 -56.4572 -50.9013
-42.76 -42.0062 -40.7451 -25.6835 2.73118 -2.64767 -0.710119 173.383 175.327 187.185
172.354 186.5 187.144 175.214 172.159 179.588 181.753 170.1 168.868 179.886
167.867 171.085 182.411 -52.5196 -37.6973 -36.4359 -55.694 -55.7062 -55.8436 -36.2507
-46.1103 -36.3777 -36.8854 -45.7523 -45.7158 -3.28442 -9.14001 -24.9883 -25.0534 -33.0517
-43.6693 -33.053 -32.7306 -43.0658 -21.2979 -19.0063 -20.731 115.41 140.13 138.112
139.023 114.666 109.294 170.025 169.899 170.467 167.73 136.384 108.383 113.561
137.136 -57.1542 -54.2835 -52.8765 -52.7001 -55.6841 -46.0937 90.2156 93.5104 78.7944
-15.1335 -6.40101 -6.92248 -21.0597 54.4513 56.3098 69.9283 73.5971 -55.7865 -55.0178
-55.3235 -55.7819 -56.9888 -57.239 -57.3839 -57.4873 -56.1466 -56.2599 -55.8592 -55.9465
-135.453 -109.708 -78.1549 -95.7742 -98.1439 -99.205 -99.1975 -83.2652 -78.8736 -92.4508
-69.996 -84.5963 -132.267 -136.064 -128.145 -96.1163 -96.9054 -54.7852 -54.2456 -54.9563
-56.0466 -56.3435 -53.87 -53.7982 6.74597 7.26314 13.6963 16.3104 13.7882 -50.9876
-50.2749 -45.8483 -46.0603 -46.127 -45.9237 -45.8959 -45.669 12.9873 12.7162 16.9348
8.30968 8.12625 9.66937 10.1457 10.1704 8.53552 7.35618 8.12023 12.435 15.7597
13.7683 0.859127 -0.782816 -2.97178 7.06702 6.24626 5.13139 6.4744 7.17547 -52.4441
-53.3633 -56.3334 -55.6156 -48.5965 -49.6069 13.586 15.5488 16.9371 -46.7941 -49.7348
-49.8678 -46.5137 -45.65 11.3876 11.1285 11.1715 9.59038 6.88197 -7.02053 -5.78008
5.49779 6.32514 6.29609 -48.4725 -48.8426 146.53 148.557 140.983 137.013 113.449
118.377 125.781 121.275 184.609 185.886 182.188 178.429 -55.6904 -55.6228 -52.9829
-52.8917 169.629 183.352 185.051 172.987 174.444 186.566 171.021 182.137 169.616
179.271 -16.8189 -19.1397 -23.8896 -28.2027 -26.7857 -22.9237 -8.84143 -3.495 -3.91605
-9.12208 -14.1638 -13.8262 -1.02931 -9.06131 -9.93056 -15.0091 -18.1421 -8.19938 -8.96062
-24.9435 -20.2139 -9.66238 -0.78712 -3.05512 6.05364 -3.50197 6.0363 6.79574 3.38282
3.91651 4.63878 4.19923 7.70692 6.08213 3.92206 5.77958 -18.9182 -16.0136 -26.3417
-21.4882 -56.3571 -58.0974 -58.7052 -58.5786 3.00618 3.07573 5.02065 5.50592 4.26511
4.86216 -14.5233 -40.2588 -57.183 -65.389 -53.1982 -31.843 -58.8915 10.6996 10.1578
10.1811 -2.43433 0.20147 12.0239 17.3074 9.53825 23.6297 20.5204 10.3996 1.66355
6.82824 8.32971 13.1575 11.5834 6.80989 -53.3874 -44.0345 -49.9371 -13.137 -43.9727
-25.0538 -60.6973 -83.8232 108.824 92.9089 106.298 108.502 112.841 111.999 172.879
172.002 173.253 172.568 171.272 185.961 185.962 185.197 -57.9717 -58.1904 174.476
-56.1265 -56.1247 -57.0764 -57.2436 -56.9487 -55.8855 -148.848 -135.81 -135.718 -132.334
-156.458 -135.644 -132.19 -132.501 -119.373 -114.836 -80.1115 -73.0825 -73.3908 -70.776
-119.288 -120.993 -56.7114 -55.6897 -54.57 -57.0935 9.45178 7.10824 10.657 8.20626
10.9778 12.0002 12.375 13.3365 14.1244 -55.2809 -54.3454 -56.3339 -55.1534 -53.2058
-52.9354 -53.0592 -54.985 -5.97766 -0.461174 -1.41701 -4.59914 9.2106 9.58189 6.82213
5.8619 7.57864 9.56542 8.80186 6.72244 1.40153 8.2072 7.12698 6.95301 8.65207
10.3756 9.19231 12.0084 11.2989 -54.7549 -55.1694 -55.2906 -55.42 -55.575 -55.4227
-54.9079 -52.9506 -54.2764 -54.2849 -54.2945 -51.1965 -52.6105 -73.8754 -73.0748 -57.7226
-60.0472 -77.646 -68.4944 -77.9195 -124.521 -129.174 -136.794 -79.6063 -97.6695 -107.693
-80.4531 -99.0358 128.806 113.65 148.569 151.789 -54.595 -53.8239 -54.9365 -54.9179
-53.1031 143.879 167.866 146.139 -49.093 -48.2479 -48.701 -49.4817 -49.2985 -49.3155
-49.2422 -47.713 -8.02307 -9.31275 -11.8713 -10.978 -14.8196 -17.0267 -19.1829 -16.9534
-17.894 74.7864 85.4775 -58.7955 51.1625 76.4964 64.9747 75.724 61.1844 14.2226
11.4359 45.746 36.7104 8.39805 9.22151 3.6521 5.32534 5.13965 7.85183 6.75307
7.11887 7.49917 8.31756 -52.9152 -52.4618 -52.1715 -52.7568 -1.0258 -0.519371 -1.10166
2.27272 5.71678 5.15995 7.10564 6.54133 -51.0823 -51.512 -51.2519 138.233 136.323
171.185 184.78 189.087 189.374 186.864 185.339 -55.728 -55.4381 -55.7627 -55.5969
-53.1212 -45.5972 -46.4323 -47.0829 -46.284 -46.6257 -47.9279 -56.0124 -56.0382 -56.643
-57.3132 -57.0128 -56.9978 -57.1534 -56.7702 -55.1172 -116.133 -111.688 -134.15 -110.572
-133.863 -122.129 -123.504 -133.206 -56.1186 -57.4714 -55.9005 -54.6001 13.6523 12.2903
11.2619 12.4273 12.6825 13.3237 -36.9325 -36.4348 -31.6519 -31.0878 -41.9121 -42.4725
-46.6271 -46.2202 -51.2147 -51.2649 -45.7333 -52.2134 -51.854 -6.17854 -0.925319 -11.4607
0.633736 2.07673 8.0208 7.55348 7.88078 4.27844 10.71 7.36353 8.78154 10.2701
10.9125 10.8042 10.9432 12.715 12.3857 2.34976 12.451 14.8525 16.0272 3.91588
3.42446 3.16547 3.84529 -59.0215 -58.152 -52.996 -56.5601 -44.7317 -44.1837 -40.1342
-44.511 -45.9395 -49.9948 -51.2193 -49.6259 -49.861 -49.6074 -47.2792 -52.3316 -47.2481
4.2181 -48.3153 -49.6265 141.06 131.881 129.459 129.534 129.913 114.447 107.043
188.662 188.134 187.141 -50.6267 -50.9614 -1.44011 -0.873204 0.168299 -29.8011 -30.6997
186.053 186.888 180.363 183.323 181.869 181.497 -33.2097 -29.0476 -3.20728 -7.89042
-5.99397 -3.25794 -24.9095 -13.7847 -10.3418 -13.5518 -19.9754 -4.57871 80.8833 56.5174
60.8365 21.0668 21.4312 68.0091 110.698 10.1129 7.16255 -2.2274 -2.48792 6.82203
7.61836 7.91206 6.09852 6.55167 24.5133 16.2691 -0.470526 19.72 -1.78143 3.48726
8.1719 8.09703 68.0105 110.198 -54.8405 -55.8693 18.0828 91.8138 109.144 100.346
92.3827 108.01 109.128 126.551 134.291 143.171 -55.8043 81.9076 73.9373 50.8067
12.4277 18.4753 16.6492 -75.8291 -56.7953 -56.7887 -56.792 -55.1696 -55.0965 -59.8071
-55.3455 -59.8103 -60.3726 23.3157 -6.49841 5.92808 10.5294 10.7689 -1.42134 -1.52593
-2.63248 -55.7075 -54.2848 -1.01831 2.53859 2.851 -57.5525 -56.9918 -56.1181 7.93273
7.62862 4.10588 -56.6456 41.5994 50.0726 -65.7272 -58.1513 18.0492 15.5811 9.01059
6.919 5.08996 8.5381 6.97507 -54.2621 -54.2122 -53.0585 -53.0009 -55.7968 -52.2896
-51.8315 -54.3531 -54.6652 -54.6594 -54.136 -55.2298 -54.7979 -54.6661 -54.4022 4.50361
-51.8217 -57.8883 -56.8529 100.549 129.202 144.748 155.218 168.117 162.96 160.771
148.766 188.247 -52.7808 -53.735 -51.8369 -7.46037 -10.5029 -3.31832 -49.7988 -49.8183
-49.7994 -50.0847 -53.1926 -47.2685 -48.854 -47.6113 -47.1057 -47.8126 28.6948 20.1163
-112.677 -120.315 -120.18 -120.828 -121.179 -73.893 -96.48 -73.8967 13.357 16.9652
-10.9474 12.1083 11.5521 -5.43978 -7.01616 4.15832 2.53799 1.03464 0.680405 -0.594333
-2.20846 -0.951139 4.18681 4.54974 0.630189 2.87482 4.52417 2.44924 1.36256 13.2883
17.5647 -50.1084 5.53366 12.7995 8.52818 16.532 8.47965 11.2002 14.229 16.013
4.82419 5.01969 6.46203 5.88431 -2.08207 -3.99589 -6.23851 -6.13941 4.86654 1.65762
4.37708 9.44211 15.3692 16.5845 8.2384 5.67138 3.04256 2.72965 7.19223 10.6831
11.3433 11.9854 11.1116 5.71064 -3.54867 5.58525 -2.78798 3.20275 -3.55792 2.45021
10.9858 8.3213 12.3523 6.96926 9.45249 11.3598 10.7589 10.46 7.93555 8.62129
9.13679 9.38083 7.89447 7.37778 7.38656 6.02732 -5.46217 -8.97257 -7.18927 6.48969
5.89998 7.97488 6.25261 -9.18814 -10.9485 1.10336 7.07614 5.89763 -1.66144 5.68196
-136.097 -137.077 -137.409 10.2397 -55.595 -54.5887 -54.6475 5.2572 9.95521 5.33282
8.41382 10.968 -55.7592 -55.7195 -55.1267 -54.838 -61.0495 -60.5758 -61.0741 -69.0674
-116.356 -120.316 -114.029 -121.059 -49.0555 -49.5844 -47.5046 -47.2025 -47.4752 -47.1767
-14.643 -14.6418 -17.0716 -52.7116 -52.5269 -52.2876 5.1522 1.51992 4.99385 4.96814
-52.0868 -52.5118 -52.6378 141.823 151.163 -55.2426 -50.6155 13.3286 13.8842 11.6374
7.21388 11.499 18.7934 4.21016 3.3293 4.66956 3.66984 -53.3762 -57.1759 -57.0041
-55.203 7.75844 15.1096 11.1398 4.09229 4.24304 10.077 8.83604 9.52815 8.62856
10.4206 12.4398 10.2812 5.84035 8.57885 8.23541 -54.1998 -50.2478 -48.5866 91.18
80.2022 84.1738 66.6843 72.6721 -4.78769 -2.92014 0.312259 -1.46813 7.61592 8.13233
7.67097 8.25926 8.01921 7.51207 7.05703 116.801 106.77 94.7256 -73.8212 -57.2169
-55.8914 -54.7576 -54.5519 -54.2194 -54.177 163.476 139.756 161.884 161.993 7.61079
4.47567 10.599 11.2962 7.20183 8.53852 7.42595 6.90879 6.15637 2.7709 -2.34896
4.7547 5.3963 5.9809 4.36701 6.65801 14.4127 9.04003 -12.7582 15.6749 14.3314
7.67052 10.7845 15.9243 9.11372 -12.6663 -13.5891 -11.6563 -2.83486 -4.84777 -13.1004
7.24943 5.30058 -14.697 -16.3069 7.20295 4.89154 -0.995079 -3.89765 -55.1398 -45.9368
13.0526 1.95161 0.286582 -0.100922 5.99519 5.55757 6.48809 6.07277 6.029 5.61331
0.309273 6.28048 6.92844 -0.428823 5.74669 4.77061 7.21452 6.70356 6.13247 106.159
86.6166 121.985 123.771 5.18451 4.91199 3.45827 -55.3626 5.11354 6.10429 5.88035
-9.5323 -12.4829 -0.214711 6.2585 6.75564 5.39793 8.07718 5.20282 6.89608 3.88969
37.655 -53.3255 -55.0786 -54.5788 -54.5388 -54.6051 -2.83815 -4.21243 -12.5504 -12.4194
-12.4417 -3.43037 9.42828 3.13809 6.00898 7.1152 2.63419 2.41733 0.142184 -0.831659
-10.86 -5.18551 -4.07881 -11.2258 -4.13195 -12.0795 5.6057 -11.3483 -12.3772 -2.41244
1.23449 6.38 6.38943 5.82268 8.89268 0.25482 6.69608 -3.05026 -1.04412 4.37463
-0.754381 7.2367 4.84317 -9.8286 9.00113 -0.591515 6.17933 1.08856 1.46707 4.8515
5.20932 4.28607 5.01184 3.14691 7.65972 8.89177 5.46298 6.08087 0.988202 3.47243
11.1073 5.54438 0.842174 -0.495255 3.6313 173.169 176.988 176.107 181.021 169.119
168.087 172.668 179.956 180.947 69.9567 74.1308 55.3703 -56.0873 -41.6077 -38.7262
-37.0177 -31.1223 -43.8143 -52.0517 -51.7092 -55.3374 -46.7716 100.825 154.454 162.097
155.238 146.965 -56.5834 -56.1755 -56.5118 -56.2827 -55.7699 -56.2429 -54.8269 -55.1359
-54.9744 3.94247 -0.355603 171.235 -18.5031 186.016 190.265 189.412 -51.374 -47.3669
182.746 185.877 186.053 -16.2575 -51.2468 85.2303 -54.9266 -55.0601 -55.32 -55.2884
-49.5007 189.389 -2.45126 189.501 185.521 189.095 7.36958 -64.3181 110.741 110.054
-55.828 4.71092 -51.6826 -53.0142 -51.799 -137.592 138.706 -54.7706 159.247 -51.9243
-121.26 -121.177 72.2057 6.95925 2.61156 168.073 164.685 -15.4388 139.844 191.108
190.002 185.401 189.461 190.79 189.785 172.794 191.162 186.781 189.956 191.196
0.614303 0.609843 0.635143 0.704214 0.918079 1.62208 2.20805 -3.98165 1.35773 0.0239586
-4.09848 -5.86708 0.409077 0.0904693 -0.0015593 0.00529743 0.0102466 0.00545009 0.000688341 -0.000927025
-0.00056538 9.72551e-05 0.00111613 0.000618858 -54.2755 -52.5515 -134.613 -135.172 -48.0604 -48.5339
-49.2155 -47.8982 -48.4158 -49.1424 -49.8153 -47.3896 -95.0456 -74.6872 -48.9254 -47.2327
-74.1245 -48.8489 -51.3683 -51.7184 -50.8368 -99.6765 -111.494 -130.08 -120.314 -120.131

U 3 2021 float
20.006 -0.0456814 -0.216084 20.0437 -0.0306094 -0.0740904 19.9289 -0.00635277 -0.0965313 19.9352 -0.0556776
-0.607173 20.0176 -0.0591199 0.0399357 20.0179 -0.0590152 0.039969 20.1681 -0.0780099 0.057455
20.2328 -0.0861904 0.0654742 20.2783 -0.091129 0.149013 20.2911 -0.115867 0.263499 20.21
-0.11713 0.208347 19.9544 -0.0470829 0.0198175 19.9967 -0.0544608 0.0183265 20.0037 -0.0527323
0.00696275 19.8526 -0.0244863 0.0176174 19.8514 -0.0212794 0.0140839 20.0059 -0.0524367 0.00188145
19.8537 -0.0198746 0.00961933 20.0043 -0.0516186 0.000499597 19.8528 -0.0182297 0.00873092 20.0026
-0.0508005 -3.6577e-05 19.8515 -0.0166879 0.00843485 20.0011 -0.0500472 -0.000322463 19.8504 -0.0153659
0.0082013 19.9995 -0.0493728 -0.000508713 19.8493 -0.014218 0.00798258 19.9979 -0.0487279 -0.0006396
19.8482 -0.0131721 0.00778892 19.9962 -0.0480952 -0.00074198 19.8471 -0.0122208 0.0075841 19.9945
-0.0474761 -0.000780389 19.846 -0.0113484 0.00748914 19.9926 -0.0468358 -0.000872055 19.845 -0.0104274
0.00720693 19.8445 -0.00994731 0.00690458 19.9923 -0.046631 -0.000912163 19.9996 -0.000339902 3.13669e-05
20 0 0 20 0 0 19.9996 -0.000340005 7.89591e-05 19.9983
-0.000784573 9.39934e-05 19.9984 -0.000794189 0.000279221 19.9942 -0.00154365 0.000368323 19.9941 -0.00150906
0.00100063 19.9788 -0.00278356 0.000336981 19.9796 -0.00310667 0.00358008 19.9464 -0.00541125 -0.0090567
19.9362 -0.00617644 -0.00794027 19.9389 0.00234129 -0.0143148 19.9276 -0.00536679 -0.0295007 19.906
0.00532742 -0.0609844 20.2331 -0.0724893 0.00172559 20.0483 -0.0287646 -0.0566992 20.2352 -0.0715721
0.00497043 19.927 -0.0888905 0.0303812 20.0249 -0.118255 0.0817789 20.2325 -0.0861591 0.0649566
19.8545 -0.0296736 0.0233336 19.3071 0.119387 0.00993068 19.3392 0.116847 0.0110537 19.3672
0.111167 0.0111287 19.3883 0.106909 0.0118291 19.4065 0.103151 0.0123468 19.4234 0.0995862
0.0125332 19.4393 0.0962164 0.0125456 19.4542 0.0930456 0.0124779 19.4685 0.0900246 0.0123406
19.4816 0.0871634 0.0122289 19.4963 0.0843743 0.0119494 19.505 0.0829448 0.0116914 20
0 0 19.9996 -0.00034062 0.000137715 19.9985 -0.000792695 0.000491067 19.9946 -0.00151566
0.00172039 19.9801 -0.00322962 0.00603611 19.9198 -0.00872904 0.0107804 19.9195 -0.00789841 0.00105388
19.8498 -0.0164897 -0.0957066 19.7932 -0.0204245 -0.0680543 19.9549 -0.0507831 -1.02596 20.4342
-0.0672596 -0.937157 20.2158 -0.0531492 -0.510138 19.9301 -0.0556992 -0.636683 20.3098 -0.163514
0.452711 20.3102 -0.164397 0.456167 20.1001 -0.249318 0.581422 19.9902 -0.23843 0.301022