# vtk DataFile Version 2.0
sampleSurface
ASCII
DATASET POLYDATA
POINTS 2021 float
-0.500032 0 0.11501 -0.499951 3.38813e-21 0.0392727 -0.789037 8.47033e-21 0.120673 -0.500013 -1.35525e-20
0.193965 1.00003 0 0.0485099 1.00003 0 0.0478584 0.475202 0 0.0353615
0.250044 1.41878e-20 0.0305359 0.2506 -5.42101e-20 0.117067 0.251301 0 0.203885 0.364989
0 0.203772 1.75002 0 0.113255 1.75002 0 0.0564279 2.50001 6.89146e-18
0.059229 2.21354 0 0.250758 2.50001 0 0.252875 3.25001 -3.47927e-17 0.0598775
3.25001 -1.69407e-21 0.253888 4.00001 5.60566e-18 0.0599857 4 0 0.253986 4.75
-1.79088e-17 0.0599988 4.75 8.47033e-22 0.253998 5.5 -2.79246e-17 0.0599999 5.5 -4.23516e-22
0.253999 6.25 1.01187e-17 0.06 6.25 0 0.254 7 2.93732e-17 0.06
7 0 0.254 7.75 -2.65294e-17 0.06 7.75 0 0.254 8.5
1.8923e-17 0.06 8.5 0 0.254 9.25 -2.88552e-17 0.06 9.25 -5.29396e-23
0.254 10 -2.64698e-23 0.254 10 0 0.06 -4.24997 0 0.0599042
-5 0 0.0599861 -5 0 0.253986 -4.24997 0 0.253912 -3.49995
0 0.0593815 -3.49994 0 0.253441 -2.74993 0 0.0570188 -2.74991 0
0.251316 -1.99991 0 0.0492276 -1.99987 0 0.242776 -1.24992 -1.69407e-21 0.03
-1.24985 1.23328e-17 0.222327 -1.24989 3.38813e-21 0.125756 -0.874924 2.08116e-17 0.03 -0.874929
0 0.122356 -0.124951 -8.47033e-22 0.03 -0.499941 0 0.03 -0.124922 -8.47033e-22
0.0385291 1.00021 0 0.231242 0.625368 0 0.203537 0.25004 -2.11758e-22 0.03
1.75003 0 0.247334 1.92873 1.69407e-21 0.441438 2.50001 0 0.447397 3.25
-1.69407e-21 0.447898 4 0 0.447986 4.75 0 0.447997 5.5 -4.23516e-22
0.447999 6.25 4.23516e-22 0.447999 7 0 0.448 7.75 -1.05879e-22 0.448
8.5 0 0.448 9.25 0 0.448 10 -2.64698e-23 0.448 -5
-8.47033e-22 0.447985 -4.24997 0 0.447919 -3.49993 0 0.4475 -2.74988 0
0.445609 -1.9998 6.77626e-21 0.437758 -1.24969 1.61411e-17 0.417681 -1.24976 -6.77626e-21 0.31973
-0.875161 7.70461e-18 0.216228 -0.875403 0 0.312476 -0.499924 -8.74138e-19 0.250039 -0.312433
0 0.250037 -0.312436 0 0.200025 -0.499924 0 0.200026 0.250062 3.38813e-21
0.24921 0.250039 -1.69407e-21 0.250046 0.250032 0 0.300069 0.437526 3.05948e-18 0.300066
0.625026 0 0.30005 1.00072 -8.23994e-18 0.326497 1.00196 0 0.423 1.75013
0 0.439575 1.75013 1.77877e-20 0.448245 1.00135 0 0.537141 1.00002 0
0.61834 1.74999 2.71051e-20 0.633055 2.49999 -3.38813e-21 0.641448 3.25 0 0.641907
4 -1.69407e-21 0.641985 4.75 -8.47033e-22 0.641996 5.5 -4.23516e-22 0.641998 6.25
0 0.641999 7 0 0.641999 7.75 0 0.642 8.5 5.29396e-23
0.642 9.25 -5.29396e-23 0.642 10 0 0.642 -5 0 0.641985
-4.24997 -1.69407e-21 0.641926 -3.49993 0 0.641557 -2.74988 0 0.639897 -1.99989
6.77626e-21 0.63382 -1.25099 2.55465e-18 0.614606 -1.25 -2.71051e-20 0.515981 -0.878244 0
0.50789 -0.875961 2.71051e-20 0.459694 -0.875609 0 0.410432 -0.498432 0 0.400603
-0.498071 -1.70762e-18 0.413126 -0.450805 0 0.413349 -0.45095 0 0.400955 0.250009
1.89735e-19 0.412703 0.25 2.71051e-20 0.425212 0.296872 1.00289e-18 0.425187 0.343754 -2.71051e-20
0.425153 0.343763 0 0.400146 0.250006 0 0.400175 1.00162 1.41488e-17 0.520353
-2 4.23516e-22 0.820145 -2.09502 -2.11758e-22 0.830091 -2 0 0.829497 -1.25123
0 0.813251 -1.25126 0 0.713737 -1.25101 6.77626e-21 0.62198 1.00059 0
0.714169 1.00094 0 0.809205 1.75018 0 0.82775 2.5 0 0.835521
3.25 0 0.835917 4 -1.69407e-21 0.835986 4.75 -8.47033e-22 0.835996 5.5
0 0.835998 6.25 0 0.835999 7 0 0.835999 7.75 0
0.836 8.5 0 0.836 9.25 0 0.836 10 0 0.836
-5 -8.47033e-22 0.835986 -4.24997 0 0.835935 -3.49995 0 0.835616 -2.74991
0 0.83419 -0.970118 0 0.703382 -0.87455 0 0.699864 -0.874264 -2.71051e-20
0.649852 -0.874033 -2.71051e-20 0.599873 -0.49698 0 0.599585 -0.497345 -9.21572e-19 0.612046
-0.450014 0 0.611892 -0.44938 2.71051e-20 0.599454 -2.00002 0 0.84097 -1.84639
-3.38813e-21 1.02215 -1.25185 0 1.01276 -0.896512 -3.38813e-21 0.900668 -0.908183 6.77626e-21
0.801076 -0.904022 -1.86347e-20 1.00093 0.624925 0 0.799916 0.249931 0 0.799891
0.249978 0 0.899916 0.249997 0 0.999939 0.999987 0 0.999957 1.75061
-2.1684e-19 1.02409 2.50003 0 1.0296 3.25 -1.69407e-21 1.02993 4 0
1.02999 4.75 0 1.03 5.5 0 1.03 6.25 2.11758e-22 1.03
7 0 1.03 7.75 0 1.03 8.5 5.29396e-23 1.03 9.25
0 1.03 10 0 1.03 -5 0 1.02999 -4.24998 0
1.02994 -3.49996 -8.47033e-22 1.02968 -2.74996 0 1.02849 -2.00026 0 1.02458
-0.87482 0 0.799893 -0.87491 0 0.899919 -0.49993 0 0.799862 -0.499958
7.6233e-19 0.849889 -0.312476 0 0.849885 -0.312472 0 0.799853 -1.25001 8.04681e-21
1.19601 -0.499979 5.29396e-23 1.10737 -0.731886 2.11758e-22 1.19997 -0.499981 0 1.19997
-0.124987 0 0.999933 -0.477759 -5.29396e-23 0.999933 -0.487556 -1.45584e-22 1.09995 0.250008
0 1.19997 1 0 1.19997 1.7507 0 1.22203 2.50003 -1.35525e-20
1.22368 3.25 0 1.22394 4 0 1.22399 4.75 4.23516e-22 1.224
5.5 0 1.224 6.25 2.11758e-22 1.224 7 0 1.224 7.75
1.05879e-22 1.224 8.5 0 1.224 9.25 0 1.224 10 2.64698e-23
1.224 -5 4.23516e-22 1.22399 -4.24999 -4.23516e-22 1.22395 -3.49998 0 1.22374
-2.75001 0 1.22279 -2.00077 0 1.21965 -1.24997 4.23516e-22 1.19997 -0.499969
-5.29396e-23 0.999933 -0.874942 0 0.999936 -0.499979 -1.32349e-23 1.09995 -2.75001 0
1.36967 -3.18711 4.23516e-22 1.41751 -2.75001 4.23516e-22 1.4171 -2.00072 3.38813e-21 1.29692
-2.00065 0 1.41474 -1.25823 6.35275e-21 1.40014 -0.980416 0 1.39998 -0.499986
0 1.39998 0.250009 0 1.39998 1 0 1.39998 1.75054 0
1.41682 2.50002 -1.35525e-20 1.41776 3.25 0 1.41796 4 4.23516e-22 1.41799
4.75 0 1.418 5.5 0 1.418 6.25 0 1.418 7
0 1.418 7.75 0 1.418 8.5 0 1.418 9.25 0
1.418 10 0 1.418 -5 0 1.41799 -4.24999 0 1.41797
-3.49999 -4.23516e-22 1.41781 -1.24998 0 1.39998 -2.80392 1.32349e-23 1.61143 -2.75
-1.32349e-23 1.6114 -2.0003 0 1.60983 -1.25396 2.64698e-23 1.60004 -1.12789 2.64698e-23
1.59999 -0.49999 1.05879e-22 1.59999 0.250008 0 1.59999 1.00001 4.23516e-22 1.59999
1.75038 0 1.61122 2.50002 0 1.61184 3.25 -4.23516e-22 1.61197 4
-4.23516e-22 1.61199 4.75 0 1.612 5.5 0 1.612 6.25 0
1.612 7 0 1.612 7.75 5.29396e-23 1.612 8.5 2.64698e-23 1.612
9.25 -1.32349e-23 1.612 10 -1.32349e-23 1.612 -5 0 1.61199 -4.24999
0 1.61198 -3.49999 0 1.61187 -1.24999 0 1.59999 -2.75 -1.32349e-23
1.63714 -2.64195 -2.11758e-22 1.80559 -2.00012 -8.47033e-22 1.80492 -1.25741 0 1.80004
-1.19082 -7.94093e-23 1.8 -0.499992 1.05879e-22 1.79999 0.250006 2.11758e-22 1.79999 1
0 1.8 1.75023 0 1.80561 2.50001 3.38813e-21 1.80592 3.25 0
1.80599 4 0 1.806 4.75 2.11758e-22 1.806 5.5 0 1.806
6.25 0 1.806 7 0 1.806 7.75 0 1.806 8.5
2.64698e-23 1.806 9.25 0 1.806 10 0 1.806 -5 0
1.806 -4.25 -2.11758e-22 1.80599 -3.49999 0 1.80594 -2.75 -1.05879e-22 1.8057
-1.24999 0 1.8 -2 -4.76456e-22 1.98532 -1.20969 -1.65436e-23 2 -0.499993
0 2 0.250006 0 2 1 0 2 1.75 0
2 2.5 0 2 3.25 0 2 4 0 2
4.75 -1.05879e-22 2 5.5 0 2 6.25 0 2 7
5.29396e-23 2 7.75 0 2 8.5 0 2 9.25 0
2 10 -1.32349e-23 2 -5 2.21817e-18 2 -4.25 1.05879e-22 2
-3.49999 0 2 -2.74999 0 2 -1.99999 -5.29396e-23 2 -1.24999
3.30872e-24 2 0.0956945 -5.42101e-20 0.203879 0.0632748 0 0.203876 0.0625511 0
0.250042 -0.403589 6.77626e-21 0.40138 -0.405779 7.7927e-19 0.38799 -0.406379 -6.77626e-21 0.375196
-0.499567 -1.35525e-20 0.375265 0.250006 -6.50521e-19 0.375144 0.156247 0 0.375155 0.156237
9.41901e-19 0.400212 0.203129 0 0.400201 0.249796 0 0.59991 0.249852 -1.0842e-19
0.587433 0.202953 0 0.587417 0.202888 6.50521e-19 0.599901 0.625121 -6.77626e-21 0.499953
0.717439 6.77626e-21 0.504955 0.625095 6.77626e-21 0.475379 0.343596 1.0842e-19 0.599918 0.343639
0 0.574939 0.296781 0 0.574964 0.249926 0 0.574977 0.62499 -4.2826e-18
0.549927 0.624917 4.55365e-18 0.599925 0.203133 0 0.412725 -0.449046 0 0.587135
-0.496581 5.42101e-20 0.587161 0.625036 -9.32414e-18 0.40006 0.625067 1.13164e-18 0.450032 0.249704
0 0.624881 0.155871 0 0.599866 0.155839 1.95156e-18 0.624853 0.249886 1.35525e-20
0.749873 0.062411 0 0.749846 0.0624478 -4.26227e-18 0.799869 -0.312472 0 0.749804
-0.499901 -3.38813e-21 0.749824 -0.691227 0 0.30453 -0.499912 3.02221e-18 0.300065 -0.875784
-3.11708e-18 0.361353 -0.592465 -2.71051e-20 0.40036 -0.499854 0 0.350135 -0.687111 1.35525e-20
0.350117 -0.68656 -2.71051e-20 0.40021 0.437526 -1.35525e-20 0.400108 0.437522 6.77626e-21 0.350086
0.250015 -2.51399e-18 0.35011 0.625027 3.38813e-21 0.350064 -0.592287 0 0.425286 -0.498048
0 0.425444 -0.873902 5.42101e-18 0.54992 -0.496663 0 0.574746 -0.591532 0
0.574798 -0.591729 0 0.599734 -0.149108 0 0.406489 -0.149477 -5.29396e-23 0.403592
-0.149678 0 0.406489 -0.451876 -2.1684e-18 0.499977 -0.451579 0 0.487563 -0.498366
0 0.487552 -0.498515 -1.0842e-19 0.499993 0.437553 0 0.450075 0.437532 -6.07153e-18
0.425113 0.254621 -1.25361e-19 0.496697 0.26485 -5.42101e-20 0.498023 0.264831 0 0.496529
0.254636 -2.30393e-19 0.49668 0.570241 0 0.499932 0.437665 -2.71051e-20 0.474991 0.437859
-2.71051e-20 0.49988 0.437372 -1.0842e-19 0.599915 0.249722 3.25261e-19 0.649874 0.43732 -5.42101e-20
0.649899 0.624872 0 0.649914 0.624883 -3.95734e-18 0.699913 0.43734 6.83047e-18 0.699894
0.249817 0 0.699869 -0.592227 0 0.624743 -0.498071 -2.71051e-20 0.624658 -0.499769
6.77626e-21 0.69979 -0.687025 0 0.699824 -0.150854 -1.03677e-18 0.599678 -0.151059 -6.77626e-21
0.605522 -0.127339 6.77626e-21 0.605681 -0.127867 0 0.599582 -0.406139 -4.40457e-20 0.699754
-0.406113 0 0.674749 -0.499634 0 0.674774 -0.18433 -4.23516e-22 0.674527 -0.163626
-4.23516e-22 0.678958 -0.165125 0 0.674537 -0.171868 4.23516e-22 0.674524 -0.14924 3.34737e-19
0.400169 -0.125737 0 0.400165 -0.12551 0 0.393854 -0.149076 -2.11758e-22 0.393877
-0.499925 -2.61564e-18 0.325088 -0.406241 0 0.325087 -0.4062 0 0.300069 -0.124901
0 0.300062 -0.218633 -3.27294e-18 0.299673 -0.218596 1.35525e-20 0.324664 -0.124851 0
0.325085 -0.126061 7.86047e-19 0.406473 -0.0785222 1.30782e-18 0.400166 -0.126118 3.38813e-21 0.41275
-0.0785648 0 0.412729 0.240678 1.0842e-18 0.500153 0.252614 -2.1684e-19 0.498317 0.252386
1.0842e-19 0.496231 0.241035 0 0.496114 0.228892 -1.35525e-20 0.496204 0.228835 6.77626e-21
0.498715 0.229819 2.71051e-20 0.500074 0.25248 0 0.499935 0.240657 -1.6263e-19 0.500957
0.264863 0 0.500154 0.264689 0 0.500951 0.437443 0 0.549896 0.437406
[...]
POINT_DATA 2021
FIELD attributes 2
p 1 2021 float
2.0138 1.44168 2.37268 4.36817 0.0585455 0.0564303 -4.20594 -6.04481 -7.69403 -6.16921 -4.32383
0.495901 0.463743 0.111505 0.326325 0.17463 0.0033709 0.0271404 0.00556422 0.0144487 0.00965449
0.0156115 0.00483136 0.00993861 0.000149258 0.00448894 -0.0014333 0.00227107 -0.00108425 0.00210569 -0.000459878
0.00213807 0.000574325 0.00334984 0 0 0.615222 0.610766 0.610614 0.614936 0.636115
0.635219 0.70611 0.702977 0.928278 0.924982 1.64295 1.76451 1.7799 2.23848 2.47916
-4.05561 1.37157 -4.1084 0.650898 -0.111082 -6.03459 0.571752 0.442132 0.189476 0.0291131
0.0072583 0.00941726 0.00556962 0.000990257 -0.000674164 -0.0003088 -0.000413683 0.00266598 0 0.610182
0.614167 0.632805 0.69394 0.903854 1.95835 2.03124 3.13096 3.87561 7.33114 -3.29048
-1.04559 4.58829 -5.73643 -5.72861 -2.27028 0.338275 0.826905 1.03088 0.926084 0.521111
0.516919 0.846822 0.8802 0.427427 0.167057 0.0228646 0.00220824 0.0064291 0.00429301 0.00035868
-0.00103502 -0.000472277 -0.000295162 0.00284567 0 0.609492 0.612977 0.629168 0.681247 0.863383
1.85205 2.13805 5.13724 5.59158 4.82891 32.5836 36.4686 52.0398 45.9963 4.76353
4.91454 3.40221 3.43285 2.69069 4.08764 0.839919 0.809304 0.788822 0.806589 1.39819
1.78737 1.84726 0.992632 0.482538 0.349615 0.127485 0.0134511 0.000416933 0.00691699 0.00612853
0.00254797 0.00111935 0.00145266 0.00205245 0.00349641 0 0.608616 0.611496 0.624734 0.666362
3.25415 3.75276 4.6851 4.76312 34.3649 32.7033 44.6286 50.7696 0.802755 0.782457
0.941053 1.70396 2.62895 1.14334 0.0805079 -4.8832 -5.30316 -2.74936 -0.228669 0.190874
0.0731187 -0.00559844 -0.0109203 -0.000939713 0.000890144 -0.00120021 -0.00175092 -0.000846818 0.000289329 0.00127707
0 0.607647 0.609874 0.619905 0.650374 0.741389 2.74855 1.73373 5.19099 3.29451
0.559173 -0.673448 0.69894 0.311939 0.313736 0.143655 -1.70968 0.674458 0.282411 -0.974392
-0.394114 0.0977705 0.0646494 -0.00299848 -0.0109169 -0.00104598 0.00145741 -0.000379441 -0.000916998 -4.47119e-05
0.00103507 0.00155599 0 0.606682 0.608263 0.615056 0.634241 0.677874 0.693701 0.824566
1.16024 0.325428 0.623008 0.614282 0.619381 0.657608 0.626699 0.567648 0.38485 0.0602276
-0.564436 -0.377913 0.0460394 0.0591668 -0.0044288 -0.0151674 -0.00440011 -0.000775744 -0.00211447 -0.0024002
-0.00135806 -0.000159123 0.000434021 0 0.605818 0.606808 0.610632 0.566992 0.607603 0.607643
0.591604 0.496473 0.427899 0.0778683 -0.435363 -0.349019 -0.00114347 0.0479305 -0.00798941 -0.0188227
-0.00648585 -0.0017669 -0.00270455 -0.00280679 -0.00166631 -0.00040338 0.000257114 0 0.60514 0.605635
0.607088 0.495967 0.606663 0.596077 0.571276 0.458806 0.428452 0.0871911 -0.365079 -0.333075
-0.0276577 0.0428438 -0.00839166 -0.0199065 -0.0072366 -0.00217973 -0.00302124 -0.00305994 -0.00187301 -0.000584583
0.000120396 0 0.604702 0.604854 0.604746 0.600252 0.457682 0.565004 0.426299 0.0902812
-0.342702 -0.327919 -0.0359493 0.0413138 -0.00848782 -0.0203242 -0.00759502 -0.00240842 -0.00318068 -0.00315743
-0.00192776 -0.000619904 0.000105899 7.66554e-05 0.604548 0.604572 0.603903 0.597731 0.564493 0.445381
-10.2894 -11.1473 -11.7994 70.4997 60.0918 43.9062 29.6838 2.92128 1.68338 4.39664
5.06013 4.16221 4.57743 6.2121 5.42837 2.02201 1.73203 2.1376 2.9753 3.68338
3.38177 3.99113 2.24352 1.9116 6.04988 56.2583 39.4524 1.93256 2.25649 3.66139
4.76764 2.18189 -4.53223 -11.2124 -9.84927 -3.18795 8.46749 7.00813 11.9115 4.75252
17.4696 20.8298 9.14118 10.5215 2.57933 1.49796 0.988801 1.65456 19.7365 36.9248
5.61541 39.6524 20.335 18.8251 -58.6937 -58.4687 -58.6909 68.473 68.386 47.5717
44.8057 3.40365 3.10772 -4.99377 0.35866 0.208259 -5.0433 2.58399 3.97233 3.9359
2.86445 1.8434 1.76225 1.62571 0.949109 0.761682 -1.36028 17.0107 28.1118 13.2999
7.2801 -56.5628 -56.349 -58.7936 -58.7198 13.8815 19.1188 18.4893 -46.3032 -42.7464
-44.4259 -45.1619 -58.2062 -57.4728 -57.4628 -57.6122 16.6215 15.8979 12.0162 -29.3725
-27.965 -45.3706 -37.0813 -58.8094 -45.984 -58.6515 -48.1238 10.998 4.3011 10.5097
11.8514 9.09833 9.37319 9.66081 4.52485 11.121 0.915345 0.746135 3.7218 3.47916
4.06068 4.31907 47.7643 68.3552 -58.8524 -56.4935 6.51159 11.1285 -51.4434 -52.7378
-58.4499 4.47817 6.30243 6.4611 6.49314 -31.4396 -40.0497 -49.4578 -29.8003 64.4203
60.8054 41.6673 41.4159 -44.053 -55.9965 -11.5388 -8.61611 -0.460744 -24.5637 -42.4765
42.9922 44.3187 64.3168 66.4883 -51.7884 -49.951 -50.728 0.330101 -9.67945 -12.7251
-11.701 -21.6877 -24.8834 -57.8504 44.0503 21.859 22.1528 11.707 12.024 12.1971
13.1484 22.0296 44.5141 10.8016 12.465 11.9053 13.2456 -58.658 -58.648 -58.1229
-58.1101 -57.4672 -56.8531 -56.497 45.8301 66.8424 -58.3231 -58.5728 -58.9739 -58.2329
-29.8592 -35.0855 -32.8187 -13.7958 -1.6287 -4.94951 -50.6212 -50.2799 -58.0046 -13.1967
0.0985785 0.0200878 -13.427 -58.2872 -56.8057 -51.3083 -12.543 -10.2731 -3.75915 1.51948
-7.35809 -5.57594 -18.6173 -38.3565 -41.4657 -36.3666 -52.2092 -53.227 -52.9661 -4.091
-17.51 -18.2582 -4.70874 -56.0648 -51.9665 -56.0864 -3.53308 -9.2555 -16.5625 -11.7015
67.541 46.8781 -54.2531 -54.4179 -56.8111 -56.6911 -56.2125 -53.7349 -57.1012 -53.1564
-55.9733 -58.9195 -59.0455 -59.0896 -32.1318 -77.0824 -96.1221 -101.077 -103.326 -102.888
-48.6217 -50.2171 -54.2334 -48.2712 -49.9249 -98.1084 -99.4019 -71.3007 -34.3194 -58.431
-59.2301 -58.9143 -56.2762 -57.163 -57.2605 -57.1866 -57.5823 7.11128 6.02055 8.92002
-56.0313 -55.726 -55.9451 -55.4336 -55.5535 -55.8645 -56.2762 -55.1523 -55.1365 2.05254
1.84499 0.726637 1.22877 4.23446 4.60206 1.36282 -55.8703 -56.3241 -56.9756 5.80033
6.63158 2.78584 0.890853 3.14892 -32.1488 -38.156 -37.414 -31.7611 -54.5865 -55.0728
-57.9741 -57.657 -54.9883 -55.8146 -38.9799 -43.3392 -43.1337 -36.9844 -46.1136 -50.1536
-53.2844 -53.4342 -52.2693 123.588 131.446 146.789 146.877 -58.1165 -56.1729 -56.4533
-57.8281 -57.6841 4.39899 2.11343 3.00889 4.60706 -9.75097 -3.92512 -5.8809 -8.92256
-11.8104 -39.1217 -36.9155 -25.6183 -27.3526 -32.1698 -39.1416 -24.9465 -24.9689 31.1048
41.2831 52.1259 37.9342 23.078 19.2577 34.2456 26.1438 0.671284 0.829577 1.98887
34.0947 24.9159 17.1013 22.1786 2.90044 3.84064 4.48536 4.59489 3.72759 6.68693
6.79754 4.62826 -9.35464 -8.2388 -1.37645 -10.2356 14.6914 9.15068 10.8263 -54.6607
-56.8932 -57.0237 -54.8548 -82.7108 -81.4299 -84.6701 -47.9414 -12.6832 -18.334 -27.5918
-55.9776 -52.8225 -55.3523 -56.4076 -73.9791 -73.6885 -58.292 -59.5934 -49.5673 -47.9791
-50.2384 -50.3997 3.76362 3.82381 -0.592691 5.99878 5.65481 4.66973 5.34085 5.73309
6.14173 -54.126 -53.6765 -68.8201 -68.0325 79.0234 94.1208 85.7214 112.122 106.434
88.8552 90.1687 161.855 164.187 153.368 121.641 98.4213 104.36 97.3173 117.655
-12.9328 -26.9939 -31.3125 -5.89593 -26.1716 -52.0732 -41.7365 -6.36908 93.7257 101.225
86.8088 78.2769 96.7051 88.4008 107.61 148.464 158.217 167.407 165.144 106.632
102.908 159.633 -32.6474 -7.98692 -38.3365 -28.5364 -47.7216 140.214 140.084 115.609
110.589 110.251 115.515 139.608 138.992 108.142 167.235 170.84 172.011 172.302
173.713 186.649 186.838 174.819 173.271 -33.0643 -40.1601 -33.0166 -56.4295 -50.8407
-42.7194 -41.9692 -40.7096 -25.6433 2.73058 -2.65358 -0.71285 173.391 175.335 187.19
172.363 186.506 187.15 175.223 172.169 179.597 181.76 170.111 168.879 179.895
167.88 171.096 182.419 -52.6157 -37.8332 -36.5805 -55.733 -55.7639 -55.8824 -36.384
-46.2357 -36.4932 -36.9728 -45.8566 -45.8225 -3.3713 -9.24006 -25.1187 -25.1688 -32.9933
-43.6079 -33.0159 -32.7081 -43.0238 -21.2818 -18.9944 -20.7221 115.426 140.144 138.128
139.038 114.683 109.311 170.036 169.91 170.478 167.742 136.401 108.4 113.578
137.152 -57.174 -54.2578 -52.8818 -52.7069 -55.7126 -46.1754 90.1644 93.4314 78.6715
-14.9332 -6.21459 -6.75287 -20.8618 54.5228 56.384 69.9904 73.6469 -55.8183 -55.0528
-55.3564 -55.8166 -56.9983 -57.2369 -57.3845 -57.4925 -56.1893 -56.2935 -55.8961 -55.9903
-134.908 -109.332 -77.7948 -95.6733 -98.0327 -99.1776 -99.1692 -83.2978 -78.889 -92.4205
-70.3968 -85.1698 -132.746 -136.343 -128.305 -96.0968 -96.8688 -54.8422 -54.307 -55.007
-56.0918 -56.3793 -53.9348 -53.8633 6.75167 7.27877 13.7186 16.3342 13.8105 -50.9526
-50.2341 -45.7947 -46.0172 -46.1753 -45.9737 -45.9468 -45.7288 12.9554 12.6855 16.8813
8.2878 8.09275 9.6518 10.1323 10.1578 8.52334 7.34271 8.10191 12.4057 15.7082
13.7267 0.799197 -0.836585 -3.02778 7.05602 6.22478 5.10471 6.44518 7.16439 -52.5011
-53.3956 -56.3553 -55.6614 -48.6692 -49.6551 13.6083 15.5702 16.9615 -46.836 -49.7405
-49.8744 -46.5529 -45.7106 11.3661 11.1085 11.1511 9.5757 6.87594 -6.94752 -5.71114
5.50661 6.3149 6.27484 -48.5457 -48.8941 146.502 148.526 140.945 136.984 113.38
118.331 125.739 121.218 184.609 185.885 182.186 178.428 -55.7351 -55.6658 -53.0628
-52.9737 169.639 183.359 185.058 172.997 174.453 186.572 171.031 182.144 169.627
179.279 -16.9093 -19.205 -23.9584 -28.2419 -26.8337 -22.9609 -8.82427 -3.48789 -3.91902
-9.11637 -14.1489 -13.7963 -1.02991 -9.06608 -9.9358 -15.0146 -18.1522 -8.20444 -8.96252
-24.959 -20.223 -9.66207 -0.781308 -3.05391 6.04494 -3.51973 6.02747 6.79496 3.38541
3.91326 4.63393 4.19411 7.7106 6.08195 3.95208 5.80742 -18.9201 -15.9984 -26.3407
-21.4686 -56.3816 -58.0927 -58.7016 -58.5786 3.04106 3.10831 5.03744 5.51767 4.28492
4.88188 -14.5456 -40.2875 -57.2454 -65.47 -53.2502 -31.8921 -58.89 10.7257 10.1846
10.2078 -2.38146 0.246432 12.0046 17.2599 9.51867 23.6408 20.5387 10.4271 1.70516
6.84327 8.33585 13.1315 11.5644 6.79925 -53.4639 -44.064 -49.9375 -13.0793 -43.9247
-24.9754 -60.6485 -83.763 108.725 92.7956 106.234 108.404 112.776 111.916 172.886
172.01 173.261 172.577 171.279 185.965 185.966 185.201 -57.9912 -58.2011 174.486
-56.1729 -56.171 -57.0925 -57.2556 -56.9642 -55.9182 -149.603 -136.62 -136.486 -133.067
-157.181 -136.373 -132.326 -132.65 -119.34 -114.996 -80.3752 -73.1554 -73.4235 -70.8427
-119.323 -120.961 -56.7441 -55.7385 -54.6439 -57.1097 9.45804 7.11247 10.6793 8.22616
10.9947 12.0194 12.3906 13.3624 14.1487 -55.2611 -54.3329 -56.3434 -55.1601 -53.2055
-52.9397 -53.0558 -54.9866 -5.92374 -0.437607 -1.38481 -4.55694 9.1998 9.56857 6.82276
5.86833 7.57343 9.55435 8.80092 6.72406 1.3311 8.18529 7.08375 6.91794 8.67681
10.4033 9.22407 12.0366 11.3273 -54.7137 -55.1372 -55.2504 -55.3777 -55.5288 -55.3774
-54.8725 -52.8802 -54.2043 -54.2129 -54.2246 -51.155 -52.5497 -73.8579 -73.0726 -57.6972
-59.9991 -77.6699 -68.515 -77.5595 -124.02 -128.615 -136.24 -79.6053 -97.6435 -107.468
-80.4693 -98.9886 128.775 113.614 148.538 151.761 -54.655 -53.8892 -54.9923 -54.9734
-53.1819 143.895 167.878 146.154 -49.0662 -48.2263 -48.6699 -49.4473 -49.2584 -49.276
-49.2028 -47.699 -8.07941 -9.36909 -11.9205 -11.0301 -14.8788 -17.0701 -19.2196 -16.9973
-17.9305 74.8177 85.5146 -58.5258 51.2293 76.5366 65.0071 75.5919 61.0494 13.8794
10.9717 45.5768 36.577 8.36082 9.19652 3.6513 5.31508 5.12421 7.81166 6.73033
7.09683 7.48098 8.2897 -52.8493 -52.4062 -52.1182 -52.704 -0.987666 -0.488563 -1.0642
2.2953 5.71116 5.15404 7.10186 6.53639 -51.0333 -51.4543 -51.1803 138.214 136.296
171.192 184.782 189.087 189.374 186.865 185.341 -55.7724 -55.4829 -55.8037 -55.6393
-53.1981 -45.6544 -46.4788 -47.1021 -46.3099 -46.641 -47.9337 -56.032 -56.0563 -56.6491
-57.3284 -57.0367 -57.0207 -57.1817 -56.7988 -55.1656 -115.829 -111.47 -134.746 -111.227
-133.87 -122.09 -123.518 -133.333 -56.1319 -57.4827 -55.9104 -54.652 13.6685 12.3018
11.271 12.4421 12.701 13.3502 -36.8702 -36.3639 -31.5799 -31.0293 -41.8421 -42.3836
-46.5363 -46.1408 -51.1485 -51.1974 -45.6326 -52.2153 -51.8546 -6.11446 -0.894164 -11.3671
0.679937 2.11282 8.01978 7.55703 7.88324 4.30335 10.688 7.36212 8.76989 10.2539
10.8963 10.7896 10.9307 12.6888 12.363 2.38409 12.4262 14.8057 15.9749 3.89526
3.40384 3.14167 3.82223 -58.9946 -58.1386 -52.9859 -56.5601 -44.7488 -44.214 -40.1705
-44.5412 -45.9565 -50.0087 -51.217 -49.6505 -49.8762 -49.6321 -47.1769 -52.2455 -47.2664
4.21198 -48.3457 -49.6379 141.022 131.834 129.428 129.481 129.861 114.384 106.967
188.663 188.137 187.142 -50.742 -51.0719 -1.41724 -0.847906 0.191784 -29.7327 -30.6414
186.058 186.893 180.371 183.33 181.876 181.505 -33.2652 -29.0973 -3.18676 -7.8485
-5.96447 -3.23292 -24.8542 -13.7241 -10.2958 -13.5004 -19.9281 -4.58143 80.8836 56.5265
60.8552 21.0736 21.4398 68.0224 110.712 10.1397 7.19225 -2.1995 -2.45778 6.83029
7.62374 7.91458 6.11206 6.56184 24.5412 16.3047 -0.410029 19.7658 -1.73926 3.50945
8.16859 8.09365 68.0265 110.214 -54.7914 -55.8656 18.1243 91.6376 109.043 100.391
92.4377 108.056 109.17 126.583 134.321 143.196 -55.8438 81.6954 73.6964 50.5252
12.5631 18.6162 16.7881 -75.4782 -56.8263 -56.8198 -56.823 -55.2434 -55.1605 -59.8798
-55.4427 -59.9161 -60.465 23.3264 -6.46133 5.95429 10.5493 10.7846 -1.37712 -1.48221
-2.58892 -55.6605 -54.2128 -0.985198 2.56363 2.86911 -57.5553 -56.9951 -56.1379 7.97164
7.66268 4.14497 -56.6495 41.6576 49.7898 -66.3548 -58.6111 17.6711 15.1498 8.99794
6.91815 5.08578 8.52385 6.97019 -54.2055 -54.1636 -52.9932 -52.9242 -55.8274 -52.2589
-51.7876 -54.3762 -54.6921 -54.681 -54.1553 -55.2638 -54.8299 -54.6939 -54.4261 4.50329
-51.7781 -57.866 -56.835 100.541 129.172 144.731 155.193 168.104 162.939 160.751
148.754 188.246 -52.8628 -53.8007 -51.9226 -7.46337 -10.5042 -3.32122 -49.7631 -49.7871
-49.76 -50.0356 -53.1921 -47.2951 -48.8304 -47.5988 -47.1112 -47.8134 28.858 20.2899
-112.272 -119.877 -119.736 -120.37 -120.713 -73.859 -96.4253 -73.8622 13.3846 16.9899
-10.8513 12.0793 11.5195 -5.4919 -7.06774 4.11342 2.49858 0.98579 0.644078 -0.630228
-2.25375 -0.996321 4.15279 4.52907 0.608879 2.85051 4.50382 2.41477 1.32659 13.32
17.5901 -50.1151 5.53132 12.7595 8.52059 16.4693 8.46928 11.1728 14.1831 15.9526
4.80445 5.01447 6.47301 5.90126 -2.04068 -3.94901 -6.18494 -6.08618 4.8853 1.69841
4.40364 9.45456 15.3439 16.5508 8.25213 5.67718 3.06585 2.75974 7.19941 10.6692
11.3249 11.9655 11.0964 5.71626 -3.50284 5.59141 -2.74901 3.2317 -3.51167 2.47636
10.9983 8.33823 12.3664 6.97458 9.46805 11.3787 10.7744 10.4754 7.92612 8.63129
9.14993 9.39573 7.88924 7.36638 7.37629 6.01753 -5.42878 -8.9283 -7.14987 6.48401
5.89326 7.95993 6.25419 -9.13577 -10.8837 1.11429 7.06543 5.89531 -1.63287 5.68769
-136.86 -137.676 -137.849 10.249 -55.5813 -54.5443 -54.597 5.25695 9.92338 5.34107
8.4094 10.9985 -55.7399 -55.7035 -55.079 -54.7737 -61.0443 -60.5434 -61.0271 -69.0754
-116.047 -119.868 -113.729 -120.577 -49.0203 -49.5481 -47.5018 -47.2024 -47.4669 -47.1782
-14.6852 -14.6845 -17.1096 -52.6593 -52.4743 -52.2327 5.15278 1.53743 4.99859 4.97008
-52.0325 -52.4675 -52.5903 141.781 151.128 -55.2874 -50.731 13.3589 13.9038 11.5991
7.21612 11.4796 18.7162 4.23609 3.35588 4.69335 3.69076 -53.3224 -57.1731 -56.9939
-55.2309 7.77772 15.0881 11.1247 4.11561 4.26724 10.0879 8.83987 9.52534 8.63794
10.4103 12.4319 10.2751 5.85862 8.5777 8.23224 -54.1782 -50.2102 -48.5737 91.232
80.265 84.2285 66.7579 72.7409 -4.74565 -2.88188 0.344407 -1.43283 7.64704 8.15802
7.70002 8.28284 8.04471 7.54134 7.08648 116.837 106.802 94.761 -73.7868 -57.2122
-55.8972 -54.7917 -54.5916 -54.2469 -54.1998 163.486 139.77 161.895 162.005 7.63332
4.50093 10.6121 11.3136 7.22259 8.55225 7.45324 6.91945 6.17606 2.80039 -2.3158
4.78145 5.41701 5.99675 4.39114 6.6866 14.4295 9.04978 -12.6835 15.6388 14.287
7.65889 10.7613 15.9435 9.14316 -12.6084 -13.5245 -11.6017 -2.79147 -4.79992 -13.025
7.26545 5.31398 -14.6211 -16.2173 7.19777 4.89161 -0.965886 -3.84127 -55.0844 -45.9769
13.0711 1.97857 0.31487 -0.0731137 6.00783 5.57141 6.49932 6.08769 6.04422 5.62869
0.348885 6.30543 6.9477 -0.388912 5.75176 4.77653 7.21789 6.71028 6.13652 106.207
86.6759 122.022 123.808 5.20801 4.93715 3.49288 -55.3025 5.13765 6.12319 5.90104
-9.48322 -12.4289 -0.181081 6.28995 6.78183 5.4376 8.1131 5.2418 6.93585 3.93033
37.3125 -53.2552 -55.0891 -54.6069 -54.5532 -54.6251 -2.88928 -4.26312 -12.4722 -12.3417
-12.3638 -3.38542 9.40975 3.16169 6.01237 7.10549 2.64632 2.43237 0.16565 -0.798472
-10.805 -5.14907 -4.04343 -11.1651 -4.09169 -12.0122 5.61759 -11.2749 -12.2997 -2.38044
1.26299 6.39483 6.40838 5.83891 8.89283 0.295019 6.70317 -3.01497 -1.01752 4.40589
-0.715444 7.25698 4.87438 -9.78302 9.02379 -0.564456 6.19366 1.12394 1.50399 4.87146
5.2259 4.31381 5.03618 3.16686 7.6821 8.91621 5.49143 6.10519 1.0176 3.49463
11.1136 5.58388 0.886413 -0.461206 3.66811 173.159 176.981 176.117 181.029 169.13
168.099 172.679 179.952 180.944 69.6896 73.881 55.0692 -56.1328 -41.561 -38.6824
-36.9586 -31.0649 -43.856 -51.9908 -51.6443 -55.3397 -46.8316 100.785 154.474 162.113
155.254 146.99 -56.6188 -56.2171 -56.5491 -56.3233 -55.8204 -56.2841 -54.8934 -55.1972
-55.0384 3.95627 -0.348034 171.245 -18.4749 186.021 190.268 189.415 -51.3313 -47.3245
182.754 185.884 186.06 -16.3687 -51.1836 85.2707 -54.9547 -55.0874 -55.3521 -55.3144
-49.5297 189.389 -2.44379 189.506 185.527 189.1 7.37357 -64.3066 110.652 109.96
-55.8733 4.65861 -51.7826 -53.094 -51.8972 -138.047 138.734 -54.7953 159.219 -52.0205
-120.793 -120.711 72.2745 6.98384 2.65686 168.085 164.699 -15.4149 139.856 191.111
190.007 185.408 189.459 190.795 189.79 172.803 191.166 186.787 189.961 191.201
0.615238 0.610772 0.636104 0.705241 0.919239 1.62351 2.20958 -3.98405 1.35859 0.0237431
-4.10099 -5.87058 0.408641 0.0900856 -0.00164163 0.00535632 0.0103738 0.00567939 0.000983592 -0.000649366
-0.000358453 0.000208683 0.00113848 0.000613953 -54.2035 -52.48 -134.056 -134.612 -48.041 -48.504
-49.1759 -47.8807 -48.3868 -49.1023 -49.7636 -47.3811 -94.9855 -74.6398 -48.8901 -47.2313
-74.0785 -48.8135 -51.3 -51.6532 -50.7711 -99.6531 -111.281 -129.558 -119.866 -119.686

U 3 2021 float
20.0061 -0.0457967 -0.215922 20.0437 -0.0307605 -0.0740798 19.9289 -0.00644353 -0.0965033 19.9353 -0.055796
-0.606651 20.0176 -0.0593789 0.0399719 20.0179 -0.059274 0.0400049 20.1683 -0.0782794 0.0575283
20.233 -0.0864648 0.0655651 20.2786 -0.0914298 0.14934 20.2914 -0.116142 0.264069 20.2103
-0.117435 0.208799 19.9544 -0.0472945 0.0198564 19.9967 -0.0547213 0.0183564 20.0037 -0.0530106
0.00697796 19.8526 -0.0245601 0.0176701 19.8514 -0.0213394 0.0141321 20.0059 -0.0527175 0.00189514
19.8538 -0.0199305 0.00965724 20.0044 -0.0518977 0.000517028 19.8529 -0.0182811 0.00876682 20.0026
-0.0510744 -1.46099e-05 19.8516 -0.0167319 0.00847166 20.0011 -0.0503124 -0.000295881 19.8505 -0.0153999
0.00824077 19.9996 -0.0496273 -0.000477443 19.8494 -0.0142416 0.0080268 19.9979 -0.0489701 -0.000603531
19.8483 -0.0131855 0.0078399 19.9962 -0.0483245 -0.000701962 19.8473 -0.0122257 0.00764218 19.9946
-0.0476928 -0.000737755 19.8462 -0.0113462 0.00755367 19.9926 -0.0470394 -0.000828696 19.8452 -0.0104208
0.00727579 19.8448 -0.00993982 0.00697471 19.9923 -0.0468298 -0.000869823 19.9996 -0.000342068 3.12804e-05
20 0 0 20 0 0 19.9996 -0.000342142 7.86546e-05 19.9983
-0.000790031 9.38579e-05 19.9984 -0.000799652 0.000278709 19.9942 -0.00155526 0.00036814 19.9941 -0.00151976
0.00100001 19.9788 -0.00280596 0.000336337 19.9795 -0.00312893 0.00357968 19.9464 -0.00546082 -0.00905441
19.9362 -0.00621618 -0.0079484 19.9389 0.00228813 -0.0143152 19.9276 -0.00545079 -0.0294998 19.906
0.00524395 -0.0609965 20.2333 -0.0727233 0.00177796 20.0483 -0.02892 -0.0567072 20.2354 -0.071803
0.00503075 19.927 -0.0892001 0.0304872 20.0248 -0.118627 0.0819611 20.2327 -0.0864333 0.065046
19.8545 -0.02977 0.0233936 19.3064 0.120107 0.0100127 19.3386 0.117531 0.0111403 19.3667
0.1118 0.0112088 19.3878 0.107508 0.0119065 19.4061 0.103723 0.0124229 19.4231 0.100133
0.0126089 19.4391 0.0967385 0.0126226 19.4541 0.093544 0.0125577 19.4684 0.0904982 0.0124239
19.4816 0.0876149 0.0123153 19.4963 0.0847991 0.0120369 19.5051 0.0833521 0.0117784 20
0 0 19.9996 -0.000342722 0.000137309 19.9985 -0.000798082 0.00049044 19.9945 -0.00152558
0.00171983 19.98 -0.00325088 0.00603696 19.9197 -0.00877953 0.0107618 19.9194 -0.00794178 0.00102934
19.8498 -0.0165841 -0.0957389 19.7932 -0.0205213 -0.0681167 19.9549 -0.05102 -1.02452 20.4345
-0.0677178 -0.936128 20.2157 -0.0533872 -0.509877 19.9301 -0.0558157 -0.636158 20.3104 -0.163704
0.453724 20.3108 -0.164587 0.457189 20.1003 -0.2495 0.582402 19.99 -0.238554 0.300873