# vtk DataFile Version 2.0
tracks
ASCII
DATASET POLYDATA
POINTS 2590 float
-1.001 -0.05 0.0011 -0.900789 -0.0500215 0.00109731 -0.800577 -0.050043 0.00109463 -0.700366 -0.0500645
0.00109196 -0.600155 -0.0500858 0.00108929 -0.499943 -0.0501072 0.00108663 -0.424945 -0.0501111 0.00107894
-0.349947 -0.0501519 0.00106884 -0.274949 -0.0501924 0.00105882 -0.19995 -0.0502325 0.0010489 -0.124952
-0.0502722 0.00103908 -0.0499538 -0.0502816 0.00103932 0.0250446 -0.0502904 0.00104806 0.100043 -0.0502992
0.00105688 0.175041 -0.0503081 0.00106577 0.25004 -0.0503171 0.00107473 0.400037 -0.0503109 0.00109082
0.550035 -0.050309 0.00110505 0.700032 -0.050307 0.00111946 0.85003 -0.050305 0.00113406 1.00003
-0.050303 0.00114885 1.15003 -0.0503136 0.00115605 1.30002 -0.0503192 0.00116053 1.45002 -0.0503248
0.00116503 1.60002 -0.0503304 0.00116954 1.75002 -0.0503361 0.00117407 1.90002 -0.0503446 0.00117694
2.05002 -0.050351 0.00117887 2.20001 -0.0503574 0.0011808 2.35001 -0.0503638 0.00118274 2.50001
-0.0503702 0.00118469 2.65001 -0.0503781 0.00118573 2.80001 -0.0503861 0.00118642 2.95001 -0.050394
0.00118711 3.10001 -0.050402 0.0011878 3.25001 -0.05041 0.00118849 3.40001 -0.0504178 0.00118878
3.55001 -0.0504265 0.00118935 3.70001 -0.0504353 0.00118993 3.85001 -0.050444 0.00119051 4.00001
-0.0504527 0.00119109 4.15 -0.0504604 0.00119116 4.3 -0.0504699 0.00119184 4.45 -0.0504794
0.00119251 4.6 -0.0504889 0.00119318 4.75 -0.0504984 0.00119385 4.9 -0.050506 0.00119385
5.05 -0.050516 0.00119468 5.2 -0.050526 0.00119552 5.35 -0.050536 0.00119635 5.5
-0.050546 0.00119718 5.65 -0.0505535 0.00119714 5.8 -0.0505638 0.00119813 5.95 -0.0505741
0.00119912 6.1 -0.0505844 0.00120012 6.25 -0.0505947 0.00120111 6.4 -0.0506022 0.00120104
6.55 -0.0506127 0.00120217 6.7 -0.0506232 0.0012033 6.85 -0.0506337 0.00120443 7
-0.0506443 0.00120556 7.15 -0.0506516 0.00120547 7.3 -0.0506623 0.0012067 7.45 -0.050673
0.00120794 7.6 -0.0506837 0.00120918 7.75 -0.0506944 0.00121042 7.9 -0.0507016 0.00121031
8.05 -0.0507124 0.00121164 8.2 -0.0507232 0.00121297 8.35 -0.050734 0.00121429 8.5
-0.0507448 0.00121562 8.65 -0.0507521 0.00121551 8.8 -0.0507629 0.00121691 8.95 -0.0507738
0.00121832 9.1 -0.0507847 0.00121972 9.25 -0.0507956 0.00122113 9.4 -0.0508027 0.00122101
9.55 -0.0508595 0.00122312 9.7 -0.0509673 0.00122598 9.85 -0.0511261 0.00122956 10
-0.051336 0.00123388 -1.001 -0.05 0.0537316 -0.900807 -0.0501058 0.0535764 -0.800614 -0.0502118
0.053394 -0.700421 -0.0503412 0.053178 -0.600229 -0.0505015 0.0529263 -0.500035 -0.0506926 0.0526392
-0.425004 -0.05094 0.0524169 -0.349973 -0.0512766 0.0521278 -0.274943 -0.0516605 0.0518597 -0.199912
-0.052078 0.0516339 -0.124879 -0.0524799 0.0514905 -0.0498864 -0.0527456 0.0515277 0.0251065 -0.052965
0.0516935 0.100099 -0.0531796 0.0519279 0.175092 -0.0534035 0.0522104 0.250087 -0.0536226 0.0525279
0.400077 -0.0540071 0.0531635 0.550067 -0.0543893 0.0536786 0.700057 -0.0547303 0.054145 0.850047
-0.05503 0.0545622 1.00003 -0.0552964 0.0549298 1.14686 -0.0556632 0.0552082 1.29368 -0.0559985
0.0554678 1.44051 -0.056331 0.0556938 1.58733 -0.0566609 0.0558861 1.7047 -0.0569226 0.0560127
1.71376 -0.0569436 0.0560212 1.72282 -0.0569647 0.0560296 1.73189 -0.0569859 0.0560378 1.74095
-0.0570071 0.056046 1.75002 -0.0570285 0.0560542 1.90002 -0.0573841 0.0561874 2.05002 -0.0577352
0.0563033 2.20001 -0.0580825 0.0564016 2.35001 -0.0584259 0.0564823 2.50001 -0.0587654 0.0565453
2.65001 -0.0591102 0.0565972 2.80001 -0.0594545 0.0566424 2.95001 -0.059798 0.0566799 3.10001
-0.0601407 0.0567097 3.25001 -0.0604826 0.0567318 3.40001 -0.0608256 0.0567489 3.55001 -0.0611698
0.0567652 3.70001 -0.0615125 0.0567795 3.85001 -0.0618537 0.0567918 4.00001 -0.0621934 0.056802
4.15 -0.0625311 0.0568098 4.3 -0.0628725 0.0568186 4.45 -0.0632124 0.0568267 4.6
-0.0635507 0.056834 4.75 -0.0638877 0.0568405 4.9 -0.0642199 0.0568448 5.05 -0.0645574
0.056851 5.2 -0.0648935 0.0568568 5.35 -0.0652283 0.0568622 5.5 -0.0655617 0.0568673
5.65 -0.0658885 0.0568698 5.8 -0.0662216 0.0568748 5.95 -0.0665534 0.0568795 6.1
-0.0668841 0.0568841 6.25 -0.0672135 0.0568884 6.4 -0.0675351 0.0568897 6.55 -0.0678637
0.0568941 6.7 -0.0681911 0.0568983 6.85 -0.0685174 0.0569023 7 -0.0688425 0.0569062
7.15 -0.069159 0.0569068 7.3 -0.069483 0.0569107 7.45 -0.0698059 0.0569146 7.6
-0.0701276 0.0569183 7.75 -0.0704482 0.0569219 7.9 -0.0707596 0.0569219 8.05 -0.071079
0.0569256 8.2 -0.0713973 0.0569293 8.35 -0.0717144 0.056933 8.5 -0.0720304 0.0569366
8.65 -0.0723368 0.0569366 8.8 -0.0726515 0.0569403 8.95 -0.072965 0.0569439 9.1
-0.0732774 0.0569474 9.25 -0.0735886 0.0569508 9.4 -0.0738899 0.0569504 9.55 -0.0742002
0.0569538 9.7 -0.07451 0.0569573 9.85 -0.0748193 0.0569607 10 -0.075128 0.0569641
-1.001 -0.05 0.106363 -0.900818 -0.0500777 0.106138 -0.800636 -0.0501532 0.105865 -0.700455
-0.0502552 0.105546 -0.600274 -0.0504273 0.105005 -0.50009 -0.0506692 0.104243 -0.424996 -0.0509556
0.103658 -0.349901 -0.0513032 0.103052 -0.274807 -0.0516551 0.102516 -0.199711 -0.0519525 0.102087
-0.124607 -0.0522939 0.101986 -0.0496047 -0.0525411 0.102099 0.0253974 -0.0527334 0.10233 0.100399
-0.0529128 0.102642 0.175401 -0.0531124 0.103039 0.250411 -0.0533321 0.103521 0.400346 -0.0537368
0.104521 0.550283 -0.05414 0.105393 0.70022 -0.0545043 0.106177 0.850157 -0.0548381 0.106795
1.00009 -0.055141 0.107245 1.15007 -0.0555796 0.10751 1.30006 -0.0558742 0.107807 1.45005
-0.0561181 0.108083 1.60003 -0.056356 0.108326 1.75002 -0.056588 0.108537 1.90002 -0.0568942
0.108682 2.05002 -0.0571368 0.108837 2.20001 -0.0573736 0.108976 2.35001 -0.0576078 0.109098
2.50001 -0.0578395 0.109203 2.65001 -0.058128 0.109272 2.80001 -0.0583741 0.109339 2.95001
-0.058619 0.109399 3.10001 -0.0588632 0.109452 3.25001 -0.0591067 0.109497 3.40001 -0.0593935
0.109531 3.55001 -0.0596436 0.109564 3.70001 -0.0598917 0.109596 3.85001 -0.0601384 0.109625
4 -0.0603834 0.109652 4.15 -0.0606642 0.109678 4.3 -0.0609143 0.109699 4.45
-0.0611626 0.10972 4.6 -0.0614093 0.109739 4.75 -0.0616545 0.109758 4.9 -0.0619288
0.109781 5.05 -0.062177 0.109796 5.2 -0.0624236 0.109811 5.35 -0.0626687 0.109825
5.5 -0.0629124 0.109839 5.65 -0.0631805 0.109859 5.8 -0.0634262 0.10987 5.95
-0.0636704 0.109881 6.1 -0.0639134 0.109891 6.25 -0.064155 0.109901 6.4 -0.0644171
0.109921 6.55 -0.06466 0.109929 6.7 -0.0649015 0.109936 6.85 -0.0651418 0.109943
7 -0.0653809 0.109951 7.15 -0.0656371 0.109969 7.3 -0.0658769 0.109975 7.45
-0.0661154 0.10998 7.6 -0.0663528 0.109985 7.75 -0.0665889 0.10999 7.9 -0.0668395
0.110008 8.05 -0.0670761 0.110011 8.2 -0.0673114 0.110015 8.35 -0.0675456 0.110019
8.5 -0.0677786 0.110022 8.65 -0.0680238 0.110039 8.8 -0.0682569 0.110042 8.95
-0.0684887 0.110044 9.1 -0.0687193 0.110047 9.25 -0.0689488 0.110049 9.4 -0.0691884
0.110065 9.55 -0.0694182 0.110066 9.7 -0.0696475 0.110067 9.85 -0.0698762 0.110068
10 -0.0701045 0.110069 -1.001 -0.05 0.158995 -0.900796 -0.0500882 0.15877 -0.800593
-0.0501923 0.158424 -0.700392 -0.0503535 0.157687 -0.600196 -0.0505846 0.156475 -0.499992 -0.0508774
0.154634 -0.42472 -0.0514841 0.153032 -0.349437 -0.0519508 0.152111 -0.274149 -0.0523466 0.15155
-0.19886 -0.0527404 0.151258 -0.123699 -0.0530565 0.151312 -0.0487804 -0.0531782 0.151476 0.0261372
-0.0532551 0.151957 0.101053 -0.053393 0.152662 0.175968 -0.0535577 0.15346 0.250944 -0.0537097
0.154288 0.400784 -0.0539177 0.155708 0.550624 -0.0544208 0.156886 0.700468 -0.0548895 0.15764
0.850313 -0.0552846 0.158239 1.00014 -0.0556487 0.15867 1.15012 -0.0561493 0.158916 1.30009
-0.0565055 0.159194 1.45007 -0.0567688 0.159462 1.60005 -0.0569556 0.159716 1.75002 -0.0571365
0.159938 1.90002 -0.0573927 0.160093 2.05002 -0.0575848 0.160259 2.20002 -0.0577647 0.160411
2.35001 -0.0579359 0.160548 2.50001 -0.0581046 0.160667 2.65001 -0.0583306 0.160751 2.80001
-0.0585141 0.160833 2.95001 -0.0586953 0.160908 3.10001 -0.0588749 0.160976 3.25001 -0.0590539
0.161037 3.40001 -0.0592763 0.161087 3.55001 -0.059462 0.161136 3.70001 -0.059645 0.161183
3.85001 -0.0598257 0.161229 4 -0.0600049 0.161273 4.15 -0.0602196 0.161316 4.3
-0.060404 0.161353 4.45 -0.0605857 0.161391 4.6 -0.0607653 0.161427 4.75 -0.0609434
0.161463 4.9 -0.0611504 0.161503 5.05 -0.0613316 0.161535 5.2 -0.0615105 0.161567
5.35 -0.0616875 0.161599 5.5 -0.0618632 0.16163 5.65 -0.0620628 0.161667 5.8
-0.0622404 0.161696 5.95 -0.0624161 0.161723 6.1 -0.0625901 0.161751 6.25 -0.0627629
0.161778 6.4 -0.0629556 0.161815 6.55 -0.0631296 0.16184 6.7 -0.0633018 0.161865
6.85 -0.0634725 0.161889 7 -0.063642 0.161913 7.15 -0.0638281 0.161949 7.3
-0.0639983 0.161972 7.45 -0.0641668 0.161994 7.6 -0.064334 0.162016 7.75 -0.0645
0.162038 7.9 -0.0646799 0.162072 8.05 -0.0648463 0.162093 8.2 -0.0650111 0.162114
8.35 -0.0651746 0.162134 8.5 -0.0653371 0.162155 8.65 -0.0655111 0.162189 8.8
-0.0656735 0.162208 8.95 -0.0658344 0.162228 9.1 -0.0659939 0.162247 9.25 -0.0661522
0.162265 9.4 -0.0663202 0.162298 9.55 -0.0664789 0.162316 9.7 -0.0666367 0.162333
9.85 -0.0667938 0.162351 10 -0.0669504 0.162367 -1.001 -0.05 0.211626 -0.94763
-0.0500804 0.211469 -0.894261 -0.0501653 0.211279 -0.840891 -0.0502548 0.211054 -0.787522 -0.0503889
0.210764 -0.724303 -0.0506323 0.210285 -0.679428 -0.0509097 0.209635 -0.634558 -0.0512445 0.208756
-0.58969 -0.0515831 0.207741 -0.544825 -0.0519266 0.206587 -0.499928 -0.0522765 0.205293 -0.46944
-0.0525704 0.204241 -0.438955 -0.0528743 0.203124 -0.408464 -0.0531627 0.202135 -0.37797 -0.0534367
0.201268 -0.329701 -0.053855 0.200029 -0.288721 -0.0541941 0.199123 -0.247737 -0.0545329 0.198433
-0.206748 -0.0548759 0.198056 -0.165758 -0.0551833 0.197967 -0.124884 -0.055416 0.198141 -0.0496126
-0.05572 0.198855 0.025657 -0.0558551 0.199805 0.100922 -0.0559622 0.201087 0.176185 -0.0561027
0.202446 0.251487 -0.0562364 0.2036 0.251734 -0.0562368 0.203603 0.25198 -0.0562371 0.203606
0.252227 -0.0562375 0.203609 0.252473 -0.0562379 0.203613 0.25272 -0.0562383 0.203616 0.32723
-0.0563497 0.204591 0.401742 -0.056463 0.205439 0.476255 -0.0565785 0.206161 0.550769 -0.0567224
[...]
POINT_DATA 2590
FIELD attributes 4
age 1 2590 float
0 0.00501121 0.0100224 0.0150336 0.0200448 0.025056 0.0288056 0.0325533 0.036301 0.0400487 0.0437965
0.0475449 0.0512905 0.0550361 0.0587817 0.0625272 0.0700239 0.0775229 0.0850219 0.0925208 0.10002
0.10752 0.115019 0.122519 0.130019 0.137519 0.145019 0.152519 0.160019 0.167518 0.175018
0.182518 0.190018 0.197517 0.205017 0.212517 0.220017 0.227516 0.235016 0.242516 0.250015
0.257515 0.265015 0.272515 0.280015 0.287514 0.295014 0.302514 0.310014 0.317513 0.325013
0.332513 0.340013 0.347512 0.355012 0.362512 0.370012 0.377512 0.385011 0.392511 0.400011
0.407511 0.415011 0.42251 0.43001 0.43751 0.44501 0.45251 0.460009 0.467509 0.475009
0.482509 0.490009 0.497508 0.505008 0.512508 0.520008 0.527507 0.535005 0.542503 0.55
0 0.005026 0.0100532 0.0150746 0.0200878 0.0250928 0.0288319 0.032565 0.0362914 0.0400111
0.0437244 0.0474306 0.0511299 0.0548273 0.0585247 0.0622238 0.0696345 0.0770706 0.0845214 0.0919871
0.0994673 0.106803 0.114139 0.121477 0.128816 0.134684 0.135137 0.13559 0.136043 0.136497
0.13695 0.14445 0.15195 0.15945 0.166949 0.174447 0.181945 0.189442 0.19694 0.204437
0.211934 0.219431 0.226928 0.234425 0.241922 0.249419 0.256917 0.264414 0.271912 0.27941
0.286907 0.294406 0.301904 0.309402 0.3169 0.324398 0.331897 0.339395 0.346894 0.354393
0.361891 0.369391 0.37689 0.384389 0.391888 0.399387 0.406887 0.414386 0.421886 0.429385
0.436885 0.444386 0.451885 0.459385 0.466886 0.474386 0.481887 0.489387 0.496888 0.504389
0.511889 0.519391 0.526892 0.534393 0.541894 0.549395 0 0.00502799 0.0100578 0.0150818
0.0200993 0.0251104 0.0288574 0.0325973 0.036328 0.0400539 0.04377 0.0474747 0.0511736 0.0548714
0.0585683 0.0622648 0.0696632 0.0770886 0.0845322 0.0919978 0.0994851 0.106988 0.114492 0.122
0.129508 0.137018 0.144533 0.152042 0.15955 0.167058 0.174565 0.182077 0.189583 0.197088
0.204594 0.212099 0.21961 0.227115 0.23462 0.242125 0.249631 0.257143 0.264648 0.272153
0.279659 0.287165 0.294677 0.302183 0.309689 0.317195 0.324701 0.332214 0.33972 0.347226
0.354733 0.362239 0.369753 0.377259 0.384766 0.392272 0.399779 0.407293 0.4148 0.422307
0.429814 0.437321 0.444836 0.452343 0.459851 0.467358 0.474866 0.482381 0.489888 0.497396
0.504904 0.512412 0.519928 0.527436 0.534944 0.542452 0.54996 0 0.0050301 0.0100662
0.0150995 0.0201269 0.0251494 0.0289151 0.032669 0.0364109 0.0401424 0.0438572 0.0475521 0.0512417
0.0549302 0.0586179 0.0623091 0.0696963 0.0771198 0.0845738 0.0920442 0.0995359 0.107048 0.114561
0.122079 0.129602 0.137125 0.144654 0.152177 0.1597 0.167223 0.174745 0.182273 0.189794
0.197314 0.204835 0.212355 0.219882 0.227402 0.234922 0.242442 0.249963 0.25749 0.26501
0.272531 0.280052 0.287572 0.2951 0.302621 0.310142 0.317663 0.325184 0.332713 0.340234
0.347755 0.355277 0.362799 0.370327 0.377849 0.385371 0.392893 0.400415 0.407944 0.415466
0.422988 0.430511 0.438033 0.445563 0.453085 0.460608 0.46813 0.475653 0.483184 0.490706
0.498229 0.505753 0.513276 0.520806 0.52833 0.535853 0.543377 0.5509 0 0.00268281
0.00536731 0.0080535 0.0107391 0.0139181 0.0161732 0.018428 0.020682 0.0229351 0.0251892 0.0267175
0.0282438 0.0297671 0.0312875 0.0336884 0.035719 0.037744 0.0397635 0.0417774 0.0437799 0.0474586
0.0511388 0.0548202 0.0585081 0.0622089 0.062221 0.0622332 0.0622453 0.0622575 0.0622696 0.0659401
0.0696205 0.0733109 0.0770117 0.0807223 0.0813147 0.081907 0.0824993 0.0830918 0.0836698 0.0868267
0.0899862 0.0931483 0.0963129 0.0994796 0.107 0.114522 0.122049 0.12958 0.137117 0.14466
0.152197 0.159733 0.16727 0.174806 0.182349 0.189884 0.197419 0.204954 0.212489 0.22003
0.227565 0.235099 0.242634 0.250169 0.257711 0.265246 0.272781 0.280316 0.287851 0.295394
0.302929 0.310465 0.318001 0.325536 0.333079 0.340615 0.348151 0.355687 0.363223 0.370767
0.378303 0.385839 0.393376 0.400912 0.408456 0.415993 0.42353 0.431067 0.438604 0.446148
0.453685 0.461223 0.46876 0.476297 0.483842 0.49138 0.498917 0.506455 0.513993 0.521538
0.529076 0.536614 0.544152 0.55169 0 0.00126444 0.00252926 0.00379477 0.00506107 0.0063282
0.0101157 0.0139116 0.0177191 0.0215331 0.0253296 0.0269108 0.0284817 0.0300458 0.0316027 0.0329952
0.0333225 0.0336495 0.0339761 0.0343026 0.0346289 0.0364571 0.0382783 0.0400905 0.0418974 0.043695
0.0454955 0.0473006 0.0491177 0.0509398 0.0527661 0.0529105 0.053055 0.0531995 0.0533441 0.0534953
0.0551808 0.056869 0.0585601 0.060254 0.0619506 0.0656465 0.0693593 0.07309 0.0768316 0.080582
0.0843455 0.0881081 0.0918715 0.0956375 0.0994059 0.106941 0.114479 0.122021 0.129567 0.137117
0.144682 0.152235 0.159787 0.16734 0.174892 0.182452 0.190004 0.197555 0.205107 0.212658
0.220216 0.227767 0.235317 0.242868 0.250419 0.257978 0.265529 0.27308 0.280631 0.288183
0.295742 0.303293 0.310845 0.318396 0.325948 0.333507 0.341059 0.348611 0.356163 0.363715
0.371275 0.378827 0.38638 0.393932 0.401484 0.409045 0.416597 0.42415 0.431702 0.439255
0.446816 0.454369 0.461922 0.469475 0.477028 0.484589 0.492142 0.499695 0.507249 0.514802
0.522363 0.529917 0.53747 0.545024 0.552577 0 0.00126545 0.00253141 0.00379788 0.00506487
0.0063324 0.00822678 0.0101235 0.0120228 0.0139248 0.015829 0.0177465 0.0196688 0.0215921 0.0235186
0.0254573 0.0264285 0.027397 0.0283611 0.0293208 0.0302802 0.0307555 0.0312291 0.0317008 0.0321703
0.0326838 0.0331395 0.0335932 0.0340449 0.0344946 0.0349418 0.0358521 0.0367592 0.0376623 0.038561
0.0394509 0.04034 0.0412277 0.0421147 0.0430013 0.0438885 0.0452296 0.0465775 0.0479322 0.0492777
0.0528827 0.0547115 0.0565541 0.0584079 0.0602685 0.0621297 0.0640009 0.0658733 0.0677478 0.0696248
0.071506 0.0733946 0.0752776 0.0771567 0.0790377 0.0809238 0.0840608 0.087202 0.0903449 0.0934894
0.0961483 0.0969017 0.0976552 0.0984089 0.0991628 0.0999167 0.10751 0.115104 0.122703 0.130306
0.137913 0.145545 0.153151 0.160754 0.168356 0.175957 0.183578 0.191178 0.198775 0.206373
0.21397 0.221587 0.229184 0.236779 0.244376 0.251972 0.259587 0.267183 0.274778 0.282374
0.28997 0.297583 0.305179 0.312774 0.32037 0.327965 0.335577 0.343172 0.350767 0.358362
0.365958 0.373568 0.381163 0.388757 0.396352 0.403947 0.411556 0.419151 0.426745 0.434339
0.441934 0.449542 0.457136 0.46473 0.472324 0.479918 0.487525 0.495119 0.502712 0.510306
0.5179 0.525505 0.533099 0.540692 0.548285 0.555879 0 0.00126279 0.00252624 0.00379074
0.00505641 0.00632326 0.00823329 0.0101453 0.0120611 0.0139802 0.0159047 0.0178219 0.0197522 0.0216953
0.0236511 0.0256294 0.0266293 0.0276301 0.0286312 0.0296315 0.0306438 0.0308908 0.0311378 0.0313845
0.0316292 0.031819 0.03257 0.0333085 0.034034 0.0347456 0.0354491 0.035896 0.0363412 0.0367849
0.0372272 0.0376634 0.0381007 0.0385352 0.0389673 0.0393987 0.0398277 0.0402595 0.0406914 0.0411234
0.041556 0.0419911 0.0424264 0.0428612 0.0432963 0.0437323 0.0441706 0.0450472 0.0459331 0.0468294
0.0477368 0.0486612 0.0493914 0.0501208 0.0508525 0.0515873 0.0524876 0.0526592 0.0528308 0.0530026
0.0531745 0.0533465 0.0542996 0.0552513 0.056205 0.0571621 0.0581212 0.0590894 0.0600567 0.0610251
0.0619965 0.0629696 0.0649368 0.0668989 0.068856 0.0708173 0.072762 0.0746932 0.0766389 0.0785993
0.0805642 0.0825341 0.0864946 0.0904467 0.094373 0.0982834 0.102197 0.110024 0.117818 0.125542
0.133207 0.140875 0.148573 0.15625 0.163921 0.171589 0.179254 0.186935 0.194599 0.202261
0.209921 0.21758 0.225254 0.232913 0.240571 0.248227 0.255883 0.263553 0.271209 0.278864
0.286518 0.294172 0.301838 0.309492 0.317144 0.324796 0.332448 0.34011 0.347762 0.355413
0.363063 0.370712 0.378372 0.386021 0.39367 0.401318 0.408965 0.416622 0.424269 0.431916
0.439562 0.447208 0.454861 0.462507 0.470151 0.477796 0.48544 0.49309 0.500734 0.508377
0.516019 0.523661 0.531308 0.53895 0.546591 0.554232 0.561873 0 0.00126441 0.00252947
0.00379518 0.00506154 0.00632914 0.00824618 0.0101656 0.0120884 0.0140174 0.0159587 0.0169287 0.0179017
0.0188778 0.0198571 0.0208396 0.0218272 0.022823 0.0238277 0.0248414 0.0258656 0.0263832 0.0269026
0.0274256 0.0279523 0.0284853 0.0287754 0.029067 0.0293608 0.0296574 0.0297553 0.0300555 0.0303571
0.0306595 0.0309618 0.0312723 0.0313692 0.031466 0.0315631 0.0316603 0.0317313 0.0317661 0.0318009
0.0318357 0.0318705 0.0319036 0.0320671 0.0322305 0.0323937 0.0325567 0.0327211 0.0328998 0.0330781
0.0332559 0.0334308 0.0335599 0.0336655 0.0337706 0.0338751 0.0339786 0.0340836 0.0341943 0.0343033
0.034411 0.0345176 0.0346047 0.034659 0.0347129 0.0347665 0.0348198 0.034872 0.0349696 0.0350669
0.0351637 0.0352601 0.0353543 0.0354765 0.0355972 0.0357165 0.0358347 0.0360281 0.0361283 0.0362281
0.0363276 0.036427 0.0365165 0.0366042 0.0366921 0.0367799 0.0368677 0.0370299 0.0371502 0.0372704
0.0373903 0.03751 0.0376282 0.0378471 0.0380644 0.0382817 0.0384995 0.0387139 0.0389319 0.0391494
0.0393671 0.0395853 0.0398034 0.0400244 0.0402437 0.0404633 0.0406831 0.0409036 0.041124 0.0413439
0.0415642 0.0417853 0.0420088 0.0422336 0.0424565 0.0426796 0.0429034 0.0431281 0.0434631 0.0437998
0.044142 0.0444902 0.0446512 0.0448131 0.0449754 0.045138 0.045301 0.0454652 0.0459537 0.0464345
0.0469155 0.0473918 0.0478895 0.0484078 0.0489157 0.0494248 0.0499388 0.0504601 0.0505233 0.0505866
0.05065 0.0507135 0.0507759 0.051792 0.0528506 0.0539545 0.0550194 0.056097 0.0573021 0.0584853
0.0596708 0.0608622 0.0620533 0.0624364 0.0628186 0.0632007 0.0635831 0.0640114 0.0648369 0.065654
0.0664691 0.0672866 0.0681028 0.0681838 0.0682647 0.0683454 0.068426 0.0685061 0.0696226 0.0707276
0.0718306 0.0729315 0.0740263 0.0751799 0.0763553 0.0775343 0.0787147 0.0798978 0.0812797 0.0826625
0.0840512 0.0854451 0.0871738 0.0880248 0.0888717 0.0897145 0.0905534 0.0913876 0.095899 0.100386
0.104798 0.109119 0.113309 0.121485 0.129598 0.137639 0.145609 0.153494 0.161255 0.169015
0.176773 0.184528 0.19228 0.200029 0.207777 0.215524 0.223268 0.231011 0.237468 0.243924
0.25038 0.256834 0.263388 0.26465 0.265912 0.267174 0.268437 0.269699 0.277432 0.285167
0.292902 0.300636 0.308371 0.316096 0.323831 0.331565 0.339299 0.347034 0.354753 0.362486
0.37022 0.377954 0.385688 0.3934 0.401133 0.408867 0.4166 0.424333 0.432039 0.439772
0.447504 0.455236 0.462969 0.470669 0.4784 0.486132 0.493863 0.501595 0.50929 0.51702
0.52475 0.53248 0.540209 0.547899 0.555627 0.563354 0.571083 0.578811 0 0.00125411
0.00250916 0.00376552 0.00502333 0.0062827 0.00821401 0.010148 0.0120848 0.0140286 0.0159868 0.0169595
0.017936 0.0189166 0.0199013 0.0208901 0.0218846 0.0228898 0.0239067 0.0249354 0.0259771 0.0265056
0.0270375 0.027576 0.0281214 0.0286756 0.0292412 0.0298144 0.0304006 0.0310008 0.0316276 0.0319465
0.0322653 0.0325848 0.0329053 0.0332404 0.0333108 0.0333813 0.0334517 0.0335222 0.0335799 0.0336572
0.033733 0.033808 0.0338822 0.0339446 0.0341159 0.034284 0.0344487 0.03461 0.0347767 0.0349194
0.0350593 0.0351967 0.0353307 0.03545 0.0355702 0.03569 0.0358091 0.0359267 0.0360384 0.0361558
0.03627 0.0363813 0.0364921 0.0366385 0.0367455 0.0368524 0.0369591 0.0370655 0.0371633 0.037358
0.0375529 0.037751 0.0379521 0.0383712 0.0386077 0.0388449 0.03908 0.0393131 0.0395413 0.0400045
0.0404617 0.0409154 0.041366 0.0418118 0.0422686 0.0427109 0.0431564 0.0436051 0.0440566 0.0445298
0.044997 0.0454758 0.0459594 0.0464509 0.0473118 0.0481925 0.0490871 0.0499621 0.0517874 0.0529105
0.0540354 0.0551842 0.0563532 0.0575555 0.0588152 0.0600478 0.0612636 0.0624887 0.0637199 0.0646107
0.065489 0.0663665 0.0672387 0.0683937 0.0687002 0.0690067 0.0693134 0.0696208 0.0699284 0.0706566
0.0713859 0.0721153 0.0728457 0.0737339 0.074217 0.0746998 0.0751824 0.0756638 0.0761431 0.077385
0.078631 0.0798847 0.0811391 0.082393 0.0848825 0.0873757 0.0898386 0.0922585 0.0946526 0.0994837
0.104267 0.108911 0.113419 0.117774 0.121544 0.1253 0.129041 0.132768 0.137502 0.141841
0.146129 0.150369 0.15456 0.158703 0.166463 0.174231 0.181998 0.189763 0.197527 0.205271
0.213034 0.220796 0.228557 0.236319 0.244052 0.251811 0.259571 0.267331 0.27509 0.282815
0.290574 0.298332 0.306091 0.313849 0.321567 0.329324 0.337082 0.344839 0.352597 0.360308
0.368064 0.375821 0.383577 0.391334 0.399039 0.406794 0.414549 0.422304 0.430059 0.437758
0.445512 0.453265 0.461019 0.468773 0.476466 0.484218 0.49197 0.499722 0.507474 0.515163
0.522913 0.530663 0.538413 0.546163 0.553846 0.561592 0.569339 0.577087 0.584834 0
0.00125903 0.00251873 0.00377912 0.00504092 0.00630438 0.00823305 0.0101647 0.0120992 0.0140412 0.0159972
0.0169701 0.0179471 0.0189282 0.0199134 0.020903 0.0218975 0.0229025 0.0239193 0.0249478 0.0259893
0.0265183 0.0270502 0.0275878 0.0281321 0.0286858 0.0292488 0.0298194 0.0303996 0.0309923 0.0316145
0.0319307 0.0322475 0.0325647 0.0328819 0.0332117 0.0334498 0.0336866 0.0339214 0.0341501 0.0342468
0.0343504 0.0344528 0.0345542 0.0346545 0.0347574 0.0349588 0.0351534 0.0353414 0.0355234 0.0356781
0.0357569 0.0358353 0.035913 0.0359899 0.0360651 0.036068 0.0360709 0.0360737 0.0360766 0.0360795
0.0362226 0.0363644 0.0365048 0.0366439 0.0368466 0.0369226 0.0369984 0.0370742 0.0371498 0.0372216
0.0376803 0.038144 0.0386209 0.0391054 0.0395195 0.0399811 0.0404318 0.0408812 0.0413325 0.0417915
0.0422668 0.0427324 0.0431946 0.0436593 0.0441332 0.0446243 0.0451062 0.0455829 0.0460648 0.0465605
0.0475917 0.0486455 0.049711 0.0507962 0.0516795 0.051727 0.0517746 0.051822 0.0518695 0.051917
0.0530433 0.054196 0.055376 0.0565789 0.0578008 0.0590701 0.0603174 0.0615455 0.0627903 0.064029
0.0646514 0.0652644 0.0658747 0.0664837 0.0670947 0.0677197 0.068335 0.0689418 0.0695496 0.0701633
0.0714116 0.0726694 0.0739242 0.0751739 0.0764132 0.0772357 0.0780504 0.078866 0.0796835 0.0806025
0.0810144 0.0814265 0.081839 0.0822522 0.0826632 0.0826638 0.0826644 0.082665 0.0826656 0.0826662
0.0851732 0.0876648 0.0901412 0.0925606 0.0949512 0.0997083 0.104418 0.109017 0.113502 0.117844
0.125071 0.1322 0.139201 0.146076 0.159072 0.164016 0.168959 0.1739 0.17884 0.183904
0.186685 0.189466 0.192247 0.195028 0.197809 0.205548 0.213289 0.221031 0.228772 0.236512
0.24424 0.251979 0.259719 0.267458 0.275197 0.282917 0.290655 0.298393 0.306132 0.31387
0.321583 0.329321 0.337059 0.344797 0.352535 0.360241 0.367978 0.375715 0.383452 0.391189
0.39889 0.406626 0.414362 0.422098 0.429834 0.437529 0.445264 0.452999 0.460734 0.468469
0.476158 0.483892 0.491625 0.499359 0.507093 0.514778 0.52251 0.530242 0.537974 0.545706
0.553385 0.561114 0.568844 0.576574 0.584304 0 0.00127992 0.00256047 0.00384229 0.00512558
0.00641036 0.00831679 0.0102257 0.0121374 0.0140556 0.0159859 0.0169579 0.017933 0.0189114 0.0198933
0.0208788 0.0218729 0.0228761 0.0238892 0.0249121 0.0259473 0.0263904 0.0268351 0.0272832 0.0277348
0.0278582 0.0280067 0.0281555 0.0283045 0.0284534 0.0286027 0.0291461 0.0296938 0.0302487 0.0308124
0.031397 0.0314722 0.0315474 0.0316225 0.0316976 0.0317629 0.03198 0.0321971 0.032414 0.0326308
0.0328511 0.0329313 0.0330114 0.0330914 0.0331712 0.0332404 0.033451 0.0336609 0.0338697 0.0340752
0.0342871 0.0343495 0.0344115 0.0344731 0.0345343 0.0345874 0.0345929 0.0345984 0.0346038 0.0346093
0.0346147 0.0348298 0.0350403 0.0352465 0.0354451 0.0356353 0.0356572 0.0356791 0.0357009 0.0357226
0.0357449 0.0358465 0.0359472 0.0360469 0.0361479 0.0362922 0.0363859 0.0364789 0.0365713 0.0366628
0.0367519 0.036856 0.0369594 0.0370622 0.0371653 0.037314 0.0374128 0.0375114 0.03761 0.0377094
0.0378065 0.0380183 0.0382283 0.0384378 0.0386466 0.0388587 0.0390787 0.0392943 0.0395055 0.0397167
0.0399307 0.0401469 0.0403614 0.0405749 0.040789 0.0410057 0.0412269 0.0414446 0.0416609 0.0418776
0.0420953 0.0423142 0.0425316 0.0427488 0.0429664 0.0431854 0.0436308 0.0440765 0.0445254 0.0449777
0.0454383 0.0459176 0.0463848 0.0468437 0.0473056 0.0477812 0.0482642 0.0487454 0.0492265 0.0497115
0.0502045 0.0512218 0.0522449 0.05328 0.0543691 0.0554751 0.0558298 0.056185 0.0565411 0.0568988
0.057276 0.058078 0.0588794 0.0596804 0.0604852 0.0612981 0.0624989 0.0636757 0.0648592 0.0660577
0.0672509 0.0684788 0.0696824 0.0708636 0.0720383 0.0732051 0.0736572 0.0741086 0.0745604 0.0750126
0.0754561 0.0757702 0.0760844 0.0763988 0.0767134 0.0770362 0.0774436 0.0778514 0.0782594 0.0786678
0.0790764 0.0814234 0.0837722 0.0861203 0.088438 0.090728 0.0952391 0.0998026 0.104272 0.108598
0.112816 0.121125 0.129405 0.137622 0.145666 0.153542 0.161284 0.169024 0.176762 0.184496
0.192227 0.199955 0.207682 0.215407 0.223131 0.230853 0.237736 0.244619 0.251501 0.258382
0.265273 0.266106 0.26694 0.267773 0.268606 0.269439 0.277153 0.284867 0.292581 0.300296
0.30801 0.315717 0.323431 0.331145 0.338859 0.346574 0.354274 0.361988 0.369701 0.377415
0.385129 0.392824 0.400537 0.40825 0.415964 0.423677 0.431366 0.439079 0.446791 0.454504
0.462216 0.4699 0.477612 0.485324 0.493035 0.500747 0.508427 0.516137 0.523848 0.531558
0.539268 0.546943 0.554651 0.56236 0.570069 0.577778 0 0.00127753 0.00255576 0.00383511
0.00511575 0.00639766 0.00829923 0.0102027 0.0121091 0.0140203 0.0159396 0.0169037 0.0178698 0.0188378
0.019808 0.0207804 0.0217542 0.022733 0.023717 0.0247056 0.025698 0.0266888 0.0276859 0.0286912
0.0296918 0.0307004 0.0307758 0.0308512 0.0309267 0.0310019 0.0310714 0.0319935 0.0328961 0.0337782
0.0346392 0.0354976 0.0359455 0.0363912 0.0368348 0.0372774 0.0377145 0.0381531 0.0385892 0.0390244
0.039459 0.0398878 0.0403209 0.0407541 0.0411877 0.0416216 0.042056 0.0424922 0.0429273 0.0433633
0.0438003 0.044239 0.0451172 0.0460038 0.046897 0.0477978 0.0487234 0.0496706 0.0506102 0.0515431
0.0524828 0.0534321 0.0541654 0.0549042 0.0556452 0.056388 0.0575303 0.0576816 0.0578331 0.0579846
0.0581362 0.0582879 0.0592719 0.0602553 0.0612391 0.0622226 0.0632049 0.0652053 0.0671924 0.0691688
0.0711548 0.0731386 0.0750972 0.0770822 0.0790819 0.0810855 0.0830909 0.0871032 0.0911328 0.0951306
0.0990832 0.10303 0.105925 0.108824 0.111732 0.114633 0.118054 0.122977 0.127873 0.132742
0.137585 0.142401 0.15011 0.157823 0.165533 0.173241 0.180946 0.188639 0.19634 0.204039
0.211736 0.219433 0.227119 0.234812 0.242505 0.250196 0.257886 0.265568 0.273256 0.280942
0.288628 0.296313 0.303992 0.311674 0.319356 0.327037 0.334718 0.342393 0.350071 0.357749
0.365426 0.373102 0.380774 0.388449 0.396122 0.403795 0.411467 0.419136 0.426807 0.434477
0.442146 0.449814 0.457481 0.465148 0.472814 0.48048 0.488145 0.495808 0.503472 0.511135
0.518797 0.526459 0.534118 0.541779 0.549438 0.557098 0.564757 0 0.00127409 0.00254879
0.00382395 0.00510034 0.00637795 0.00827385 0.0101719 0.0120722 0.0139755 0.015883 0.0177923 0.0197068
0.0216262 0.0235503 0.0254824 0.0264533 0.0274211 0.0283841 0.0293421 0.0299616 0.0309796 0.0319899
0.0329898 0.0339795 0.0349574 0.0358664 0.036772 0.0376736 0.0385722 0.0394617 0.0403524 0.0412415
0.0421296 0.0430166 0.043903 0.0456802 0.0474747 0.0492837 0.0511024 0.0529376 0.0538061 0.0546759
0.0555478 0.0564218 0.0577808 0.0586645 0.05955 0.0604373 0.0613263 0.0622168 0.0640924 0.0659709
0.0678521 0.069736 0.0716219 0.0735174 0.0754051 0.0772938 0.0791839 0.081075 0.084871 0.0886662
0.0924659 0.09627 0.100088 0.107787 0.115489 0.123145 0.130764 0.138399 0.146048 0.153694
0.161339 0.168982 0.176623 0.184269 0.191912 0.199553 0.207192 0.21483 0.222472 0.23011
0.237747 0.245383 0.253018 0.260656 0.268291 0.275926 0.283559 0.291192 0.298828 0.306461
0.314093 0.321725 0.329355 0.336989 0.344619 0.352249 0.359879 0.367507 0.375138 0.382767
0.390395 0.398022 0.405649 0.413278 0.420904 0.42853 0.436155 0.44378 0.451407 0.459031
0.466655 0.474279 0.481901 0.489526 0.497149 0.504771 0.512393 0.520013 0.527635 0.535256
0.542876 0.550496 0.558115 0 0.00127141 0.00254321 0.00381554 0.00508845 0.00636198 0.0101414
0.0139323 0.0177224 0.0215091 0.0252997 0.0257907 0.0262805 0.0267694 0.0272574 0.0276869 0.0290764
0.0304606 0.0318397 0.0332137 0.0345851 0.0364262 0.0382579 0.0400727 0.0418834 0.043689 0.0455002
0.0473088 0.0491189 0.0509375 0.0527675 0.0546038 0.0564414 0.0582819 0.0601252 0.0619712 0.0656733
0.0693893 0.0731213 0.0768683 0.0806189 0.0843893 0.0881579 0.0919267 0.0956975 0.0994708 0.107
0.114529 0.122062 0.12961 0.137173 0.144752 0.152327 0.159904 0.167482 0.175058 0.182639