# vtk DataFile Version 2.0
tracks
ASCII
DATASET POLYDATA
POINTS 2600 float
-1.001 -0.05 0.0011 -0.900789 -0.0500216 0.00109731 -0.800577 -0.0500431 0.00109463 -0.700366 -0.0500646
0.00109196 -0.600155 -0.0500861 0.00108929 -0.499943 -0.0501075 0.00108663 -0.424945 -0.0501114 0.00107893
-0.349947 -0.0501524 0.0010688 -0.274949 -0.050193 0.00105877 -0.19995 -0.0502333 0.00104884 -0.124952
-0.0502732 0.00103899 -0.0499538 -0.0502827 0.00103922 0.0250446 -0.0502917 0.00104796 0.100043 -0.0503008
0.00105677 0.175041 -0.05031 0.00106566 0.25004 -0.0503193 0.00107462 0.400037 -0.0503134 0.00109074
0.550035 -0.0503118 0.00110498 0.700032 -0.0503101 0.0011194 0.85003 -0.0503084 0.00113402 1.00003
-0.0503068 0.00114882 1.15003 -0.0503175 0.00115602 1.30002 -0.0503234 0.00116051 1.45002 -0.0503292
0.00116502 1.60002 -0.0503351 0.00116955 1.75002 -0.050341 0.00117409 1.90002 -0.0503496 0.00117696
2.05002 -0.0503563 0.0011789 2.20001 -0.0503629 0.00118085 2.35001 -0.0503695 0.0011828 2.50001
-0.0503762 0.00118475 2.65001 -0.0503842 0.0011858 2.80001 -0.0503924 0.0011865 2.95001 -0.0504006
0.0011872 3.10001 -0.0504088 0.0011879 3.25001 -0.050417 0.0011886 3.40001 -0.050425 0.00118888
3.55001 -0.0504339 0.00118946 3.70001 -0.0504428 0.00119005 3.85001 -0.0504518 0.00119064 4.00001
-0.0504607 0.00119122 4.15 -0.0504685 0.0011913 4.3 -0.0504782 0.00119198 4.45 -0.050488
0.00119266 4.6 -0.0504977 0.00119334 4.75 -0.0505074 0.00119403 4.9 -0.0505151 0.00119402
5.05 -0.0505253 0.00119486 5.2 -0.0505355 0.00119571 5.35 -0.0505457 0.00119655 5.5
-0.050556 0.00119739 5.65 -0.0505635 0.00119735 5.8 -0.0505741 0.00119835 5.95 -0.0505846
0.00119935 6.1 -0.0505951 0.00120036 6.25 -0.0506056 0.00120136 6.4 -0.0506132 0.00120129
6.55 -0.0506239 0.00120243 6.7 -0.0506346 0.00120356 6.85 -0.0506453 0.0012047 7
-0.0506561 0.00120584 7.15 -0.0506635 0.00120575 7.3 -0.0506744 0.001207 7.45 -0.0506853
0.00120825 7.6 -0.0506962 0.0012095 7.75 -0.0507071 0.00121075 7.9 -0.0507144 0.00121064
8.05 -0.0507254 0.00121198 8.2 -0.0507364 0.00121332 8.35 -0.0507474 0.00121466 8.5
-0.0507584 0.001216 8.65 -0.0507657 0.00121588 8.8 -0.0507768 0.0012173 8.95 -0.0507878
0.00121871 9.1 -0.0507989 0.00122013 9.25 -0.05081 0.00122155 9.4 -0.0508172 0.00122143
9.55 -0.0508748 0.00122356 9.7 -0.0509839 0.00122644 9.85 -0.0511448 0.00123006 10
-0.0513573 0.00123442 -1.001 -0.05 0.0537316 -0.900807 -0.0501065 0.0535766 -0.800614 -0.0502132
0.0533943 -0.700421 -0.0503436 0.0531783 -0.600229 -0.050505 0.0529266 -0.500035 -0.0506974 0.0526393
-0.425004 -0.0509463 0.0524167 -0.349973 -0.0512847 0.052127 -0.274943 -0.0516706 0.0518582 -0.199912
-0.0520903 0.0516317 -0.124879 -0.0524946 0.0514876 -0.0498864 -0.0527628 0.0515242 0.0251064 -0.0529853
0.0516899 0.100099 -0.0532032 0.0519243 0.175092 -0.0534305 0.0522069 0.250087 -0.053653 0.0525245
0.400077 -0.0540437 0.0531604 0.550067 -0.0544319 0.0536757 0.700057 -0.0547785 0.0541423 0.850047
-0.0550837 0.0545598 1.00003 -0.0553553 0.0549278 1.14683 -0.0557266 0.0552062 1.29362 -0.0560664
0.055466 1.44042 -0.0564034 0.0556922 1.58721 -0.0567376 0.0558846 1.70456 -0.0570028 0.0560114
1.71365 -0.0570241 0.0560199 1.72274 -0.0570455 0.0560283 1.73184 -0.057067 0.0560366 1.74093
-0.0570886 0.0560449 1.75002 -0.0571103 0.056053 1.90002 -0.0574701 0.0561864 2.05002 -0.0578256
0.0563025 2.20001 -0.0581773 0.0564009 2.35001 -0.0585252 0.0564817 2.50001 -0.0588692 0.0565449
2.65001 -0.0592182 0.0565969 2.80001 -0.059567 0.0566422 2.95001 -0.0599149 0.0566799 3.10001
-0.060262 0.0567098 3.25001 -0.0606083 0.0567321 3.40001 -0.0609553 0.0567493 3.55001 -0.0613039
0.0567657 3.70001 -0.0616509 0.0567802 3.85001 -0.0619964 0.0567926 4.00001 -0.0623405 0.0568029
4.15 -0.0626821 0.0568108 4.3 -0.0630276 0.0568198 4.45 -0.0633717 0.056828 4.6
-0.0637142 0.0568354 4.75 -0.0640553 0.0568421 4.9 -0.0643913 0.0568465 5.05 -0.0647329
0.0568528 5.2 -0.0650731 0.0568587 5.35 -0.0654119 0.0568643 5.5 -0.0657493 0.0568695
5.65 -0.0660798 0.0568721 5.8 -0.0664169 0.0568772 5.95 -0.0667527 0.0568821 6.1
-0.0670872 0.0568868 6.25 -0.0674205 0.0568912 6.4 -0.0677457 0.0568926 6.55 -0.0680782
0.0568971 6.7 -0.0684094 0.0569014 6.85 -0.0687395 0.0569056 7 -0.0690683 0.0569096
7.15 -0.0693883 0.0569103 7.3 -0.0697161 0.0569143 7.45 -0.0700427 0.0569183 7.6
-0.0703681 0.0569221 7.75 -0.0706923 0.0569258 7.9 -0.0710071 0.056926 8.05 -0.07133
0.0569298 8.2 -0.0716519 0.0569336 8.35 -0.0719725 0.0569374 8.5 -0.072292 0.0569411
8.65 -0.0726017 0.0569412 8.8 -0.0729199 0.056945 8.95 -0.0732368 0.0569487 9.1
-0.0735526 0.0569524 9.25 -0.0738672 0.0569559 9.4 -0.0741716 0.0569555 9.55 -0.0744853
0.0569591 9.7 -0.0747984 0.0569626 9.85 -0.075111 0.0569661 10 -0.0754231 0.0569696
-1.001 -0.05 0.106363 -0.900818 -0.0500784 0.106138 -0.800636 -0.0501546 0.105866 -0.700455
-0.0502576 0.105547 -0.600274 -0.0504308 0.105005 -0.50009 -0.0506741 0.104243 -0.424996 -0.050962
0.103657 -0.349901 -0.0513113 0.103052 -0.274807 -0.051665 0.102514 -0.199711 -0.0519644 0.102084
-0.124607 -0.0523083 0.101982 -0.0496047 -0.0525582 0.102094 0.0253974 -0.0527535 0.102324 0.100399
-0.052936 0.102635 0.175401 -0.0531389 0.103032 0.250411 -0.0533621 0.103514 0.400346 -0.0537733
0.104514 0.550283 -0.0541828 0.105386 0.700219 -0.0545533 0.10617 0.850157 -0.0548927 0.106788
1.00009 -0.055201 0.107239 1.15007 -0.0556444 0.107505 1.30006 -0.0559437 0.107802 1.45005
-0.0561918 0.108079 1.60003 -0.0564338 0.108323 1.75002 -0.0566699 0.108534 1.90002 -0.0569794
0.108679 2.05002 -0.057226 0.108835 2.20001 -0.0574668 0.108974 2.35001 -0.0577051 0.109096
2.50001 -0.0579408 0.109202 2.65001 -0.0582324 0.109271 2.80001 -0.0584826 0.109339 2.95001
-0.0587316 0.109399 3.10001 -0.0589797 0.109452 3.25001 -0.0592272 0.109498 3.40001 -0.0595171
0.109532 3.55001 -0.0597711 0.109566 3.70001 -0.0600232 0.109598 3.85001 -0.0602737 0.109627
4 -0.0605226 0.109655 4.15 -0.0608063 0.109681 4.3 -0.0610602 0.109702 4.45
-0.0613122 0.109723 4.6 -0.0615626 0.109743 4.75 -0.0618115 0.109762 4.9 -0.0620887
0.109785 5.05 -0.0623406 0.1098 5.2 -0.0625908 0.109815 5.35 -0.0628395 0.10983
5.5 -0.0630869 0.109844 5.65 -0.0633576 0.109865 5.8 -0.0636069 0.109876 5.95
-0.0638546 0.109887 6.1 -0.0641011 0.109897 6.25 -0.0643463 0.109907 6.4 -0.064611
0.109927 6.55 -0.0648573 0.109935 6.7 -0.0651023 0.109943 6.85 -0.065346 0.10995
7 -0.0655885 0.109958 7.15 -0.0658473 0.109976 7.3 -0.0660904 0.109982 7.45
-0.0663323 0.109987 7.6 -0.0665729 0.109993 7.75 -0.0668124 0.109998 7.9 -0.0670654
0.110016 8.05 -0.0673052 0.11002 8.2 -0.0675438 0.110023 8.35 -0.0677812 0.110027
8.5 -0.0680174 0.11003 8.65 -0.0682649 0.110048 8.8 -0.0685012 0.110051 8.95
-0.0687361 0.110053 9.1 -0.0689699 0.110056 9.25 -0.0692025 0.110058 9.4 -0.0694442
0.110074 9.55 -0.0696771 0.110076 9.7 -0.0699094 0.110077 9.85 -0.0701412 0.110078
10 -0.0703725 0.110078 -1.001 -0.05 0.158995 -0.900796 -0.0500889 0.15877 -0.800593
-0.0501937 0.158424 -0.700392 -0.0503559 0.157688 -0.600196 -0.0505881 0.156476 -0.499992 -0.0508822
0.154636 -0.42472 -0.0514904 0.153032 -0.349437 -0.051959 0.152111 -0.274149 -0.0523569 0.151548
-0.19886 -0.0527531 0.151254 -0.123699 -0.0530718 0.151306 -0.0487805 -0.0531962 0.151467 0.026137
-0.0532766 0.151947 0.101053 -0.0534185 0.152652 0.175967 -0.0535874 0.15345 0.250943 -0.0537436
0.154278 0.400783 -0.0539593 0.155701 0.550624 -0.0544701 0.156878 0.700468 -0.0549457 0.157633
0.850313 -0.0553467 0.158233 1.00014 -0.0557163 0.158665 1.15012 -0.056222 0.158911 1.30009
-0.056583 0.15919 1.45007 -0.0568501 0.159459 1.60005 -0.0570399 0.159714 1.75002 -0.0572238
0.159936 1.90002 -0.0574821 0.160092 2.05002 -0.0576771 0.160258 2.20002 -0.0578599 0.160411
2.35001 -0.058034 0.160548 2.50001 -0.0582056 0.160668 2.65001 -0.0584336 0.160752 2.80001
-0.05862 0.160834 2.95001 -0.0588041 0.16091 3.10001 -0.0589866 0.160979 3.25001 -0.0591684
0.16104 3.40001 -0.0593927 0.16109 3.55001 -0.0595812 0.161139 3.70001 -0.059767 0.161187
3.85001 -0.0599504 0.161233 4 -0.0601323 0.161277 4.15 -0.0603489 0.16132 4.3
-0.0605359 0.161358 4.45 -0.0607203 0.161396 4.6 -0.0609025 0.161433 4.75 -0.0610831
0.161469 4.9 -0.0612918 0.161509 5.05 -0.0614755 0.161542 5.2 -0.061657 0.161574
5.35 -0.0618365 0.161606 5.5 -0.0620147 0.161637 5.65 -0.0622158 0.161675 5.8
-0.0623959 0.161704 5.95 -0.0625741 0.161732 6.1 -0.0627505 0.16176 6.25 -0.0629257
0.161787 6.4 -0.0631199 0.161824 6.55 -0.0632963 0.161849 6.7 -0.0634709 0.161874
6.85 -0.0636439 0.161899 7 -0.0638157 0.161924 7.15 -0.0640033 0.161959 7.3
-0.0641757 0.161982 7.45 -0.0643465 0.162005 7.6 -0.0645159 0.162027 7.75 -0.0646841
0.162049 7.9 -0.0648654 0.162084 8.05 -0.065034 0.162105 8.2 -0.065201 0.162126
8.35 -0.0653667 0.162147 8.5 -0.0655313 0.162167 8.65 -0.0657066 0.162201 8.8
-0.0658712 0.162221 8.95 -0.0660341 0.162241 9.1 -0.0661957 0.16226 9.25 -0.0663561
0.162279 9.4 -0.0665252 0.162312 9.55 -0.0666859 0.16233 9.7 -0.0668457 0.162347
9.85 -0.0670048 0.162364 10 -0.0671634 0.162382 -1.001 -0.05 0.211626 -0.947632
-0.0500808 0.211469 -0.894264 -0.0501662 0.211279 -0.840896 -0.0502561 0.211055 -0.787529 -0.0503908
0.210764 -0.724312 -0.0506351 0.210286 -0.679435 -0.0509133 0.209635 -0.634563 -0.0512488 0.208756
-0.589693 -0.0515883 0.20774 -0.544827 -0.0519327 0.206586 -0.499928 -0.0522836 0.205292 -0.469456
-0.0525779 0.20424 -0.438986 -0.0528824 0.203123 -0.408512 -0.0531714 0.202134 -0.378034 -0.0534461
0.201266 -0.329886 -0.0538648 0.200029 -0.288869 -0.0542057 0.19912 -0.247848 -0.0545464 0.198426
-0.206822 -0.0548914 0.198046 -0.165795 -0.0552011 0.197955 -0.124884 -0.0554362 0.198127 -0.0496123
-0.0557444 0.198837 0.0256573 -0.0558839 0.199785 0.100922 -0.0559957 0.201066 0.176185 -0.0561411
0.202426 0.251487 -0.0562797 0.20358 0.25201 -0.0562805 0.203587 0.252532 -0.0562813 0.203594
0.253054 -0.0562821 0.203601 0.253576 -0.0562829 0.203607 0.254102 -0.0562837 0.203614 0.328336
-0.0563995 0.204584 0.402571 -0.0565171 0.20543 0.476808 -0.0566366 0.206148 0.551045 -0.0567849
[...]
POINT_DATA 2600
FIELD attributes 4
age 1 2600 float
0 0.00501121 0.0100224 0.0150336 0.0200449 0.0250561 0.0288056 0.0325533 0.036301 0.0400488 0.0437965
0.0475449 0.0512906 0.0550362 0.0587817 0.0625272 0.070024 0.0775229 0.0850219 0.0925208 0.10002
0.10752 0.115019 0.122519 0.130019 0.137519 0.145019 0.152519 0.160019 0.167518 0.175018
0.182518 0.190018 0.197517 0.205017 0.212517 0.220017 0.227516 0.235016 0.242516 0.250015
0.257515 0.265015 0.272515 0.280014 0.287514 0.295014 0.302514 0.310014 0.317513 0.325013
0.332513 0.340013 0.347512 0.355012 0.362512 0.370012 0.377512 0.385011 0.392511 0.400011
0.407511 0.415011 0.42251 0.43001 0.43751 0.44501 0.452509 0.460009 0.467509 0.475009
0.482509 0.490009 0.497508 0.505008 0.512508 0.520008 0.527507 0.535005 0.542503 0.55
0 0.00502605 0.0100534 0.0150748 0.020088 0.0250931 0.0288322 0.0325654 0.0362919 0.0400115
0.0437249 0.0474311 0.0511303 0.0548277 0.058525 0.0622241 0.0696347 0.0770707 0.0845214 0.0919869
0.0994671 0.106801 0.114136 0.121472 0.12881 0.134677 0.135131 0.135586 0.13604 0.136495
0.136949 0.14445 0.15195 0.159449 0.166948 0.174446 0.181945 0.189442 0.196939 0.204436
0.211933 0.219431 0.226927 0.234424 0.241921 0.249419 0.256917 0.264414 0.271911 0.279409
0.286907 0.294405 0.301903 0.309401 0.316899 0.324398 0.331897 0.339395 0.346894 0.354392
0.361891 0.36939 0.376889 0.384388 0.391887 0.399387 0.406887 0.414386 0.421885 0.429385
0.436885 0.444385 0.451885 0.459385 0.466885 0.474386 0.481887 0.489387 0.496888 0.504388
0.511889 0.519391 0.526892 0.534393 0.541894 0.549395 0 0.00502804 0.0100579 0.015082
0.0200995 0.0251106 0.0288577 0.0325977 0.0363284 0.0400543 0.0437705 0.0474751 0.0511741 0.0548719
0.0585687 0.0622651 0.0696634 0.0770888 0.0845322 0.0919977 0.099485 0.106988 0.114492 0.122
0.129508 0.137018 0.144533 0.152042 0.15955 0.167058 0.174565 0.182077 0.189583 0.197089
0.204594 0.212099 0.219611 0.227116 0.234621 0.242126 0.249631 0.257143 0.264649 0.272154
0.27966 0.287165 0.294678 0.302184 0.30969 0.317196 0.324702 0.332215 0.339721 0.347227
0.354733 0.36224 0.369754 0.37726 0.384767 0.392273 0.39978 0.407294 0.414801 0.422308
0.429815 0.437322 0.444837 0.452344 0.459852 0.467359 0.474867 0.482382 0.48989 0.497397
0.504905 0.512413 0.519929 0.527437 0.534945 0.542453 0.549962 0 0.00503014 0.0100663
0.0150996 0.0201271 0.0251497 0.0289155 0.0326694 0.0364114 0.0401429 0.0438577 0.0475527 0.0512422
0.0549306 0.0586183 0.0623094 0.0696965 0.0771198 0.0845738 0.0920442 0.0995359 0.107048 0.114562
0.12208 0.129602 0.137126 0.144655 0.152178 0.159701 0.167224 0.174746 0.182274 0.189795
0.197316 0.204836 0.212357 0.219884 0.227404 0.234924 0.242444 0.249965 0.257492 0.265013
0.272533 0.280054 0.287575 0.295103 0.302624 0.310145 0.317667 0.325188 0.332716 0.340238
0.347759 0.355281 0.362802 0.370331 0.377853 0.385375 0.392897 0.400419 0.407948 0.415471
0.422993 0.430515 0.438038 0.445568 0.45309 0.460613 0.468136 0.475659 0.483189 0.490712
0.498235 0.505758 0.513281 0.520812 0.528336 0.535859 0.543383 0.550906 0 0.00268274
0.00536716 0.00805328 0.0107388 0.0139178 0.016173 0.0184279 0.020682 0.0229353 0.0251895 0.0267171
0.0282426 0.0297651 0.0312847 0.0336797 0.0357123 0.0377391 0.0397604 0.0417762 0.0437805 0.0474592
0.0511393 0.0548206 0.0585085 0.0622092 0.0622349 0.0622606 0.0622863 0.062312 0.062338 0.0659949
0.0696617 0.0733384 0.0770254 0.0807223 0.0813126 0.081903 0.0824934 0.0830838 0.0836599 0.0868188
0.0899802 0.0931443 0.0963109 0.0994796 0.107 0.114522 0.122049 0.129581 0.137118 0.144661
0.152198 0.159735 0.167272 0.174808 0.182351 0.189886 0.197422 0.204957 0.212492 0.220033
0.227568 0.235103 0.242638 0.250173 0.257715 0.26525 0.272785 0.280321 0.287856 0.295399
0.302935 0.31047 0.318006 0.325542 0.333085 0.340621 0.348157 0.355694 0.36323 0.370773
0.37831 0.385846 0.393383 0.40092 0.408464 0.416001 0.423538 0.431075 0.438612 0.446157
0.453694 0.461231 0.468769 0.476306 0.483851 0.491389 0.498927 0.506465 0.514003 0.521548
0.529086 0.536624 0.544163 0.551701 0 0.00126445 0.00252928 0.00379479 0.0050611 0.00632823
0.0101158 0.0139117 0.0177192 0.0215333 0.0253299 0.0269116 0.0284832 0.0300479 0.0316055 0.0329928
0.0333207 0.0336483 0.0339755 0.0343025 0.0346295 0.0364577 0.0382789 0.0400912 0.0418982 0.0436957
0.0454963 0.0473014 0.0491185 0.0509405 0.0527667 0.0529217 0.0530768 0.0532318 0.0533869 0.0535497
0.0552244 0.0569019 0.0585821 0.0602653 0.061951 0.0656467 0.0693594 0.0730901 0.0768315 0.080582
0.0843456 0.0881084 0.0918718 0.095638 0.0994065 0.106942 0.11448 0.122022 0.129568 0.137118
0.144684 0.152237 0.159789 0.167342 0.174895 0.182455 0.190007 0.197559 0.20511 0.212661
0.22022 0.227771 0.235322 0.242873 0.250424 0.257983 0.265534 0.273085 0.280637 0.288188
0.295747 0.303299 0.310851 0.318403 0.325955 0.333514 0.341066 0.348618 0.356171 0.363723
0.371283 0.378835 0.386388 0.39394 0.401493 0.409053 0.416606 0.424159 0.431712 0.439265
0.446825 0.454378 0.461931 0.469485 0.477038 0.484599 0.492152 0.499706 0.507259 0.514813
0.522374 0.529928 0.537482 0.545035 0.552589 0 0.00126545 0.00253142 0.0037979 0.00506489
0.00633243 0.00822682 0.0101236 0.0120228 0.0139249 0.0158291 0.0177466 0.0196689 0.0215922 0.0235187
0.0254575 0.0264287 0.0273971 0.0283612 0.0293209 0.0302804 0.0307557 0.0312294 0.0317011 0.0321706
0.032683 0.033139 0.033593 0.0340449 0.0344949 0.0349423 0.0358528 0.03676 0.0376631 0.038562
0.0394519 0.0403411 0.0412288 0.0421158 0.0430025 0.0438897 0.0452481 0.0466134 0.0479857 0.0493328
0.0528845 0.0547135 0.0565562 0.0584102 0.0602709 0.0621324 0.0640037 0.0658762 0.0677509 0.0696282
0.0715095 0.0733982 0.0752813 0.0771607 0.079042 0.0809283 0.0840546 0.087185 0.0903171 0.0934509
0.0960988 0.0968632 0.0976278 0.0983925 0.0991574 0.0999224 0.107516 0.115111 0.12271 0.130314
0.137921 0.145553 0.15316 0.160762 0.168364 0.175966 0.183587 0.191187 0.198784 0.206382
0.21398 0.221596 0.229193 0.236789 0.244386 0.251982 0.259597 0.267193 0.274789 0.282385
0.289981 0.297594 0.30519 0.312785 0.320381 0.327977 0.335589 0.343184 0.350779 0.358374
0.36597 0.37358 0.381176 0.38877 0.396365 0.40396 0.411569 0.419164 0.426758 0.434353
0.441948 0.449556 0.45715 0.464744 0.472338 0.479933 0.487539 0.495134 0.502727 0.510321
0.517915 0.52552 0.533114 0.540707 0.5483 0.555894 0 0.00126279 0.00252625 0.00379075
0.00505643 0.00632329 0.00823332 0.0101453 0.0120611 0.0139803 0.0159047 0.017822 0.0197523 0.0216953
0.0236512 0.0256294 0.0266293 0.02763 0.0286312 0.0296316 0.0306439 0.0308915 0.0311391 0.0313863
0.0316316 0.0318216 0.0325723 0.0333106 0.0340358 0.0347474 0.0354511 0.0358982 0.0363437 0.0367876
0.0372299 0.0376663 0.0381038 0.0385384 0.0389705 0.0394019 0.0398308 0.0402627 0.0406945 0.0411265
0.041559 0.0419941 0.0424295 0.0428642 0.0432992 0.0437352 0.0441734 0.04505 0.0459361 0.0468322
0.0477399 0.0486649 0.0494195 0.0501728 0.0509286 0.0516878 0.0526236 0.0527697 0.0529158 0.053062
0.0532082 0.0533546 0.0543081 0.0552605 0.0562149 0.0571717 0.0581307 0.0590989 0.0600662 0.0610344
0.0620057 0.0629788 0.0649466 0.0669091 0.0688661 0.0708276 0.0727728 0.074704 0.0766498 0.0786104
0.0805753 0.0825452 0.0865058 0.0904579 0.0943839 0.0982946 0.102209 0.110037 0.117832 0.125556
0.133221 0.14089 0.148588 0.156264 0.163936 0.171603 0.179269 0.18695 0.194614 0.202276
0.209936 0.217596 0.22527 0.232929 0.240586 0.248243 0.255899 0.263569 0.271225 0.27888
0.286534 0.294188 0.301854 0.309508 0.317161 0.324813 0.332464 0.340127 0.347779 0.355429
0.363079 0.370729 0.378388 0.386038 0.393687 0.401335 0.408982 0.416639 0.424286 0.431933
0.439579 0.447225 0.454878 0.462524 0.470169 0.477813 0.485457 0.493108 0.500752 0.508395
0.516037 0.523678 0.531326 0.538968 0.546609 0.55425 0.561891 0 0.00126442 0.00252948
0.00379519 0.00506156 0.00632916 0.00824621 0.0101657 0.0120884 0.0140175 0.0159587 0.0169288 0.0179018
0.0188779 0.0198572 0.0208397 0.0218273 0.0228231 0.0238278 0.0248415 0.0258657 0.0263833 0.0269027
0.0274257 0.0279524 0.0284854 0.0287762 0.0290685 0.029363 0.0296603 0.0297581 0.0300577 0.0303588
0.0306607 0.0309624 0.0312724 0.0313683 0.0314643 0.0315604 0.0316567 0.0317272 0.0317632 0.0317993
0.0318354 0.0318715 0.0319058 0.0320689 0.0322318 0.0323946 0.0325573 0.0327212 0.0329004 0.0330791
0.0332574 0.0334328 0.033562 0.0336673 0.033772 0.033876 0.0339792 0.0340838 0.0341937 0.034302
0.0344089 0.0345148 0.0346014 0.0346567 0.0347117 0.0347664 0.0348207 0.0348738 0.0349712 0.0350681
0.0351645 0.0352605 0.0353543 0.0354769 0.035598 0.0357176 0.0358362 0.0360302 0.0361299 0.0362293
0.0363282 0.0364271 0.0365162 0.0366036 0.0366911 0.0367786 0.0368661 0.0370269 0.0371476 0.0372681
0.0373885 0.0375086 0.0376271 0.0378458 0.0380629 0.03828 0.0384975 0.0387115 0.0389292 0.0391463
0.0393636 0.0395814 0.039799 0.0400195 0.0402383 0.0404574 0.0406768 0.0408969 0.0411168 0.0413363
0.0415562 0.0417769 0.0419999 0.0422242 0.0424467 0.0426694 0.0428927 0.043117 0.0434455 0.0437756
0.0441111 0.0444524 0.0446145 0.0447807 0.0449472 0.0451141 0.0452815 0.04545 0.0459375 0.0464171
0.0468971 0.0473724 0.0478696 0.0483873 0.0488947 0.0494031 0.0499164 0.050437 0.0504971 0.0505572
0.0506175 0.0506779 0.0507372 0.0517547 0.0528142 0.0539197 0.0549874 0.0560682 0.0572733 0.0584565
0.0596415 0.0608326 0.0620235 0.0624017 0.0627792 0.0631565 0.063534 0.0639562 0.0647869 0.0656091
0.0664292 0.0672519 0.0680731 0.0681483 0.0682234 0.0682984 0.0683733 0.0684478 0.0695708 0.0706815
0.0717903 0.072897 0.0739975 0.0751509 0.0763264 0.0775056 0.0786861 0.0798694 0.0812351 0.0826017
0.0839745 0.0853527 0.0870489 0.087921 0.0887888 0.0896524 0.0905118 0.0913663 0.0958821 0.100373
0.104789 0.109112 0.113304 0.121486 0.129604 0.137649 0.145621 0.153509 0.16127 0.169031
0.17679 0.184545 0.192298 0.200048 0.207797 0.215544 0.223289 0.231033 0.236407 0.24178
0.247153 0.252526 0.25796 0.260313 0.262666 0.265019 0.267372 0.269725 0.277459 0.285195
0.292931 0.300667 0.308404 0.31613 0.323866 0.331602 0.339338 0.347074 0.354793 0.362528
0.370264 0.378 0.385735 0.393448 0.401183 0.408917 0.416652 0.424387 0.432094 0.439828
0.447562 0.455296 0.46303 0.47073 0.478463 0.486196 0.493929 0.501663 0.509358 0.51709
0.524821 0.532553 0.540284 0.547974 0.555703 0.563433 0.571163 0.578893 0 0.00125411
0.00250916 0.00376553 0.00502335 0.00628273 0.00821404 0.010148 0.0120848 0.0140287 0.0159868 0.0169595
0.0179361 0.0189167 0.0199014 0.0208902 0.0218847 0.0228899 0.0239068 0.0249355 0.0259772 0.0265058
0.0270376 0.0275761 0.0281215 0.0286757 0.0292412 0.0298145 0.0304007 0.0310009 0.0316276 0.0319464
0.0322652 0.0325846 0.0329051 0.0332401 0.0333122 0.0333842 0.0334562 0.0335283 0.0335869 0.033662
0.0337356 0.0338085 0.0338807 0.0339419 0.0341135 0.0342819 0.0344471 0.0346087 0.0347758 0.0349181
0.0350577 0.0351946 0.0353283 0.0354474 0.0355679 0.0356879 0.0358073 0.0359251 0.0360371 0.0361543
0.0362684 0.0363795 0.0364901 0.0366363 0.0367434 0.0368504 0.0369571 0.0370637 0.0371614 0.0373581
0.0375548 0.0377548 0.0379578 0.0383881 0.03862 0.0388523 0.0390826 0.0393109 0.0395348 0.0399974
0.0404544 0.0409081 0.0413589 0.0418053 0.0422626 0.0427059 0.0431527 0.0436026 0.0440555 0.0445306
0.0449997 0.0454795 0.0459639 0.0464566 0.0472609 0.0480829 0.0489172 0.0497688 0.0497814 0.0501874
0.0505922 0.050996 0.0513987 0.0518033 0.0529328 0.0540616 0.0552142 0.0563868 0.0575952 0.0588625
0.0601027 0.0613271 0.0625609 0.0637976 0.0646233 0.0654397 0.0662558 0.0670675 0.0680368 0.0684366
0.0688367 0.0692371 0.0696377 0.0700387 0.0706105 0.0711832 0.0717568 0.0723312 0.0729843 0.0730207
0.0730571 0.0730936 0.07313 0.0731664 0.0737935 0.0744197 0.0750457 0.0756706 0.0762919 0.0775419
0.078795 0.080056 0.0813177 0.0825786 0.0850818 0.0875894 0.0900651 0.0924984 0.0948999 0.0995453
0.104145 0.108616 0.112962 0.118093 0.12071 0.12332 0.125922 0.128518 0.131534 0.137213
0.142806 0.148317 0.153746 0.159094 0.166854 0.174628 0.182399 0.19017 0.19794 0.205684
0.213452 0.221219 0.228986 0.236753 0.244486 0.252251 0.260016 0.267781 0.275546 0.283271
0.291035 0.298798 0.306562 0.314326 0.322044 0.329806 0.337569 0.345332 0.353095 0.360806
0.368567 0.376328 0.38409 0.391852 0.399557 0.407316 0.415076 0.422837 0.430597 0.438296
0.446054 0.453813 0.461571 0.46933 0.477024 0.48478 0.492537 0.500294 0.508051 0.51574
0.523494 0.531249 0.539004 0.546759 0.554442 0.562193 0.569945 0.577696 0.585449 0
0.00125903 0.00251874 0.00377913 0.00504094 0.0063044 0.00823308 0.0101647 0.0120993 0.0140412 0.0159973
0.0169702 0.0179471 0.0189282 0.0199135 0.0209031 0.0218975 0.0229026 0.0239193 0.0249479 0.0259893
0.0265184 0.0270502 0.0275879 0.0281322 0.0286858 0.0292488 0.0298194 0.0303995 0.0309922 0.0316144
0.0319305 0.0322473 0.0325645 0.0328816 0.0332113 0.0334488 0.033685 0.0339191 0.0341473 0.034244
0.034348 0.0344509 0.0345527 0.0346533 0.0347567 0.0349578 0.035152 0.0353396 0.0355213 0.0356758
0.0357541 0.0358321 0.0359093 0.0359858 0.0360642 0.0360657 0.0360672 0.0360686 0.0360701 0.0360715
0.0362155 0.0363581 0.0364993 0.0366392 0.0368433 0.0369197 0.0369961 0.0370723 0.0371484 0.0372206
0.0376793 0.0381429 0.0386198 0.0391041 0.0395181 0.0399795 0.0404301 0.0408793 0.0413305 0.0417892
0.042264 0.0427293 0.0431914 0.0436557 0.0441292 0.0446197 0.0451011 0.0455774 0.0460589 0.0465541
0.0475839 0.0486361 0.0497 0.0507833 0.051605 0.0516647 0.0517244 0.051784 0.0518436 0.0519032
0.0530286 0.0541798 0.0553593 0.0565625 0.0577854 0.0590584 0.0603075 0.0615364 0.0627816 0.0640207
0.0646437 0.0652564 0.0658665 0.066475 0.0670866 0.0677123 0.0683281 0.0689349 0.0695434 0.0701575
0.071407 0.0726664 0.0739227 0.0751739 0.0764148 0.0771729 0.0779241 0.0786762 0.0794301 0.080272
0.0807003 0.0811288 0.0815577 0.0819874 0.0824077 0.0824609 0.082514 0.0825672 0.0826203 0.0826734
0.0851816 0.0876746 0.0901527 0.0925729 0.0949644 0.0997247 0.104437 0.109039 0.113529 0.117877
0.12473 0.131494 0.138143 0.144678 0.159151 0.162453 0.165755 0.169056 0.172356 0.175717
0.180153 0.184589 0.189025 0.19346 0.197895 0.205634 0.213378 0.221122 0.228865 0.236608
0.244336 0.252078 0.25982 0.267561 0.275303 0.283023 0.290764 0.298505 0.306245 0.313986
0.3217 0.32944 0.33718 0.34492 0.352661 0.360367 0.368107 0.375846 0.383586 0.391325
0.399026 0.406764 0.414503 0.422241 0.42998 0.437675 0.445412 0.453149 0.460887 0.468624
0.476314 0.48405 0.491786 0.499522 0.507258 0.514943 0.522677 0.530412 0.538146 0.54588
0.55356 0.561291 0.569023 0.576755 0.584488 0 0.00127992 0.00256048 0.00384229 0.00512559
0.00641037 0.0083168 0.0102258 0.0121374 0.0140556 0.0159859 0.0169579 0.017933 0.0189115 0.0198934
0.0208788 0.0218729 0.0228761 0.0238892 0.0249121 0.0259473 0.026389 0.0268323 0.027279 0.027729
0.0278529 0.0280025 0.0281524 0.0283023 0.0284524 0.0286027 0.0291461 0.0296937 0.0302486 0.0308122
0.0313968 0.0314712 0.0315456 0.0316199 0.0316943 0.0317589 0.0319768 0.0321946 0.0324122 0.0326297
0.0328507 0.0329304 0.0330101 0.0330896 0.033169 0.0332378 0.0334489 0.0336591 0.0338683 0.0340742
0.0342865 0.0343485 0.0344102 0.0344714 0.0345322 0.034585 0.0345905 0.034596 0.0346016 0.0346071
0.0346126 0.0348279 0.0350387 0.0352451 0.035444 0.0356344 0.0356561 0.0356778 0.0356994 0.0357209
0.035743 0.0358447 0.0359454 0.036045 0.036146 0.0362902 0.0363841 0.0364773 0.0365699 0.0366616
0.0367508 0.036855 0.0369583 0.0370611 0.0371642 0.037313 0.0374118 0.0375103 0.0376089 0.0377082
0.0378053 0.0380171 0.0382271 0.0384365 0.0386453 0.0388574 0.0390774 0.0392929 0.039504 0.0397152
0.0399291 0.0401453 0.0403597 0.0405732 0.0407872 0.0410039 0.041225 0.0414426 0.0416589 0.0418755
0.0420931 0.0423119 0.0425293 0.0427464 0.042964 0.0431829 0.0436281 0.0440736 0.0445223 0.0449744
0.0454347 0.0459138 0.0463808 0.0468396 0.0473014 0.0477769 0.0482599 0.048741 0.0492222 0.0497072
0.0502002 0.051217 0.0522398 0.0532753 0.0543649 0.0554706 0.0558141 0.0561578 0.0565026 0.0568488
0.0572131 0.058026 0.0588384 0.0596504 0.0604658 0.0612897 0.0624895 0.0636663 0.0648502 0.0660488
0.0672409 0.0684672 0.0696695 0.0708502 0.0720241 0.0731901 0.0736144 0.074038 0.074462 0.0748864
0.075303 0.0756066 0.0759103 0.0762142 0.0765182 0.0768299 0.0772747 0.07772 0.0781656 0.0786116
0.079058 0.0814031 0.0837501 0.086096 0.088412 0.0907016 0.0952135 0.099778 0.104247 0.108574
0.112793 0.121106 0.129389 0.137609 0.145655 0.153532 0.161275 0.169016 0.176754 0.184489
0.192221 0.199949 0.207676 0.215402 0.223127 0.230849 0.236734 0.242618 0.248501 0.254384
0.260264 0.262099 0.263934 0.265769 0.267604 0.269439 0.277152 0.284868 0.292584 0.300299
0.308015 0.315722 0.323437 0.331153 0.338869 0.346584 0.354285 0.362 0.369715 0.37743
0.385145 0.39284 0.400555 0.408269 0.415984 0.423699 0.431388 0.439102 0.446816 0.45453
0.462244 0.469928 0.477641 0.485354 0.493067 0.50078 0.50846 0.516172 0.523884 0.531595
0.539307 0.546982 0.554691 0.562401 0.570112 0.577822 0 0.00127753 0.00255577 0.00383512
0.00511575 0.00639767 0.00829924 0.0102027 0.0121091 0.0140203 0.0159396 0.0169038 0.0178698 0.0188378
0.019808 0.0207804 0.0217542 0.022733 0.023717 0.0247056 0.025698 0.0266887 0.0276858 0.0286911
0.0296916 0.0307 0.0307751 0.0308503 0.0309254 0.0310003 0.0310696 0.0319919 0.0328947 0.033777
0.0346382 0.0354967 0.0359446 0.0363902 0.0368337 0.0372762 0.0377132 0.0381517 0.0385877 0.0390229
0.0394574 0.0398861 0.0403191 0.0407522 0.0411857 0.0416195 0.0420539 0.04249 0.042925 0.0433609
0.0437978 0.0442365 0.0451145 0.0460011 0.0468942 0.047795 0.0487207 0.0496678 0.0506074 0.0515404
0.0524804 0.0534298 0.0541474 0.0548703 0.0555953 0.056322 0.0574292 0.0576002 0.0577714 0.0579427
0.0581141 0.0582856 0.0592692 0.0602522 0.0612356 0.0622187 0.063201 0.065201 0.0671879 0.0691643
0.0711501 0.0731333 0.0750916 0.077076 0.0790754 0.0810787 0.0830839 0.0870961 0.0911248 0.0951218
0.099074 0.103021 0.105832 0.108647 0.111471 0.114288 0.117597 0.122611 0.127598 0.132556
0.137488 0.142392 0.150102 0.157815 0.165525 0.173233 0.180938 0.188632 0.196332 0.204032
0.211729 0.219426 0.227113 0.234806 0.242498 0.250189 0.25788 0.265562 0.27325 0.280937
0.288622 0.296308 0.303987 0.311669 0.319351 0.327033 0.334713 0.342389 0.350067 0.357745
0.365422 0.373098 0.380771 0.388445 0.396119 0.403792 0.411464 0.419133 0.426804 0.434474
0.442143 0.449812 0.457478 0.465146 0.472812 0.480478 0.488143 0.495807 0.503471 0.511134
0.518796 0.526458 0.534118 0.541778 0.549438 0.557098 0.564757 0 0.00127409 0.0025488
0.00382396 0.00510034 0.00637796 0.00827385 0.0101719 0.0120722 0.0139755 0.015883 0.0177923 0.0197068
0.0216262 0.0235503 0.0254823 0.0264532 0.027421 0.0283839 0.0293419 0.0299599 0.0309781 0.0319887
0.0329889 0.0339788 0.034957 0.0358659 0.0367715 0.0376729 0.0385714 0.0394609 0.0403515 0.0412406
0.0421285 0.0430155 0.0439018 0.0456789 0.0474734 0.0492823 0.051101 0.0529361 0.0537898 0.0546448
0.0555018 0.0563609 0.0576855 0.0585879 0.0594921 0.0603981 0.0613061 0.0622155 0.0640911 0.0659695
0.0678508 0.0697346 0.0716204 0.073516 0.0754036 0.0772922 0.0791822 0.0810733 0.0848692 0.0886641
0.0924636 0.0962676 0.100086 0.107785 0.115487 0.123143 0.130763 0.138398 0.146047 0.153693
0.161338 0.168982 0.176624 0.18427 0.191913 0.199554 0.207194 0.214832 0.222474 0.230112
0.237749 0.245386 0.253021 0.260659 0.268295 0.27593 0.283564 0.291197 0.298833 0.306466
0.314099 0.32173 0.329361 0.336995 0.344626 0.352256 0.359886 0.367514 0.375146 0.382775
0.390403 0.39803 0.405657 0.413286 0.420913 0.428539 0.436165 0.443789 0.451416 0.459041
0.466665 0.474289 0.481912 0.489537 0.49716 0.504782 0.512404 0.520025 0.527647 0.535268
0.542888 0.550508 0.558128 0 0.00127141 0.00254321 0.00381554 0.00508845 0.00636198 0.0101414
0.0139323 0.0177224 0.0215091 0.0252996 0.0257903 0.0262798 0.0267684 0.0272562 0.0276857 0.0290753
0.0304598 0.031839 0.0332131 0.0345847 0.0364258 0.0382574 0.0400721 0.0418828 0.0436884 0.0454995
0.0473081 0.0491181 0.0509368 0.0527669 0.0546031 0.0564408 0.0582813 0.0601247 0.0619707 0.0656729
0.069389 0.073121 0.0768679 0.0806185 0.0843889 0.0881574 0.0919262 0.095697 0.0994702 0.107