# vtk DataFile Version 2.0
tracks
ASCII
DATASET POLYDATA
POINTS 2605 float
-1.001 -0.05 0.0011 -0.900789 -0.0500209 0.00109734 -0.800577 -0.0500417 0.00109469 -0.700366 -0.0500625
0.00109204 -0.600155 -0.0500832 0.0010894 -0.499943 -0.0501039 0.00108676 -0.424945 -0.0501074 0.00107923
-0.349947 -0.0501467 0.00106932 -0.274949 -0.0501856 0.00105951 -0.19995 -0.0502242 0.00104979 -0.124952
-0.0502624 0.00104015 -0.0499538 -0.0502713 0.00104044 0.0250446 -0.0502787 0.00104899 0.100043 -0.0502862
0.00105762 0.175041 -0.0502938 0.00106631 0.25004 -0.0503014 0.00107508 0.400037 -0.0502942 0.0010908
0.550035 -0.0502896 0.00110479 0.700032 -0.050285 0.00111895 0.85003 -0.0502804 0.00113329 1.00003
-0.0502757 0.00114781 1.15003 -0.0502854 0.00115504 1.30002 -0.0502887 0.00115931 1.45002 -0.0502919
0.00116359 1.60002 -0.0502952 0.00116789 1.75002 -0.0502985 0.00117221 1.90002 -0.0503062 0.00117509
2.05002 -0.0503104 0.0011768 2.20001 -0.0503146 0.00117852 2.35001 -0.0503189 0.00118025 2.50001
-0.0503231 0.00118197 2.65001 -0.0503303 0.00118306 2.80001 -0.0503361 0.00118355 2.95001 -0.0503419
0.00118404 3.10001 -0.0503477 0.00118453 3.25001 -0.0503535 0.00118502 3.40001 -0.0503606 0.00118534
3.55001 -0.0503671 0.00118572 3.70001 -0.0503737 0.0011861 3.85001 -0.0503803 0.00118649 4.00001
-0.0503868 0.00118687 4.15 -0.0503938 0.00118698 4.3 -0.0504012 0.00118746 4.45 -0.0504085
0.00118794 4.6 -0.0504159 0.00118842 4.75 -0.0504233 0.0011889 4.9 -0.0504302 0.00118892
5.05 -0.050438 0.00118955 5.2 -0.0504459 0.00119019 5.35 -0.0504537 0.00119083 5.5
-0.0504616 0.00119147 5.65 -0.0504684 0.00119144 5.8 -0.0504766 0.00119226 5.95 -0.0504848
0.00119308 6.1 -0.050493 0.00119389 6.25 -0.0505012 0.00119471 6.4 -0.050508 0.00119465
6.55 -0.0505164 0.00119563 6.7 -0.0505248 0.00119661 6.85 -0.0505332 0.0011976 7
-0.0505417 0.00119858 7.15 -0.0505484 0.0011985 7.3 -0.050557 0.00119961 7.45 -0.0505656
0.00120073 7.6 -0.0505742 0.00120184 7.75 -0.0505829 0.00120295 7.9 -0.0505895 0.00120286
8.05 -0.0505983 0.00120408 8.2 -0.050607 0.0012053 8.35 -0.0506158 0.00120652 8.5
-0.0506246 0.00120774 8.65 -0.0506312 0.00120765 8.8 -0.05064 0.00120897 8.95 -0.0506488
0.00121028 9.1 -0.0506577 0.00121159 9.25 -0.0506666 0.00121291 9.4 -0.0506731 0.00121282
9.55 -0.0507237 0.00121504 9.7 -0.0508206 0.00121819 9.85 -0.0509639 0.00122227 10
-0.0511536 0.00122728 -1.001 -0.05 0.0537316 -0.900807 -0.0500995 0.0535771 -0.800614 -0.0501986
0.0533956 -0.700421 -0.0503194 0.0531815 -0.600229 -0.0504691 0.0529331 -0.500035 -0.0506475 0.0526506
-0.425004 -0.0508814 0.0524327 -0.349973 -0.0512021 0.0521495 -0.274943 -0.0515682 0.0518878 -0.199912
-0.0519666 0.0516679 -0.124879 -0.0523494 0.051529 -0.0498863 -0.0525985 0.0515684 0.0251066 -0.0527997
0.0517313 0.100099 -0.0529952 0.0519609 0.175092 -0.0531994 0.0522379 0.250087 -0.0533994 0.0525495
0.400077 -0.0537488 0.0531751 0.550067 -0.0540923 0.0536857 0.700057 -0.0543953 0.0541487 0.850047
-0.0546577 0.0545637 1.00003 -0.0548865 0.0549302 1.1469 -0.0552184 0.0552088 1.29376 -0.0555181
0.0554682 1.44063 -0.0558157 0.055694 1.58749 -0.0561111 0.0558862 1.70475 -0.0563454 0.0560127
1.7138 -0.0563643 0.0560211 1.72286 -0.0563832 0.0560295 1.73191 -0.0564023 0.0560377 1.74096
-0.0564214 0.0560459 1.75002 -0.0564407 0.056054 1.90002 -0.0567619 0.0561871 2.05002 -0.057078
0.0563031 2.20001 -0.0573902 0.0564016 2.35001 -0.0576983 0.0564826 2.50001 -0.0580025 0.0565462
2.65001 -0.0583149 0.0565992 2.80001 -0.0586235 0.056645 2.95001 -0.0589315 0.056683 3.10001
-0.0592387 0.0567134 3.25001 -0.0595452 0.056736 3.40001 -0.0598566 0.0567541 3.55001 -0.0601656
0.0567709 3.70001 -0.0604734 0.0567855 3.85001 -0.0607801 0.0567981 4.00001 -0.0610857 0.0568084
4.15 -0.0613932 0.056817 4.3 -0.0617006 0.0568259 4.45 -0.062007 0.0568339 4.6
-0.0623122 0.0568411 4.75 -0.0626162 0.0568475 4.9 -0.0629195 0.0568521 5.05 -0.0632244
0.056858 5.2 -0.0635282 0.0568634 5.35 -0.0638309 0.0568684 5.5 -0.0641324 0.0568729
5.65 -0.0644313 0.0568753 5.8 -0.0647329 0.0568797 5.95 -0.0650335 0.0568839 6.1
-0.0653331 0.0568878 6.25 -0.0656317 0.0568914 6.4 -0.0659264 0.0568925 6.55 -0.0662247
0.0568962 6.7 -0.0665219 0.0568998 6.85 -0.0668183 0.0569032 7 -0.0671137 0.0569065
7.15 -0.0674044 0.0569069 7.3 -0.0676991 0.0569103 7.45 -0.067993 0.0569137 7.6
-0.0682859 0.0569169 7.75 -0.0685778 0.0569201 7.9 -0.0688644 0.0569202 8.05 -0.0691555
0.0569236 8.2 -0.0694457 0.0569271 8.35 -0.0697349 0.0569307 8.5 -0.0700231 0.0569342
8.65 -0.0703055 0.0569345 8.8 -0.0705927 0.0569382 8.95 -0.0708789 0.056942 9.1
-0.071164 0.0569457 9.25 -0.0714482 0.0569494 9.4 -0.071726 0.0569496 9.55 -0.0720093
0.0569534 9.7 -0.0722921 0.0569573 9.85 -0.0725745 0.0569612 10 -0.0728564 0.056965
-1.001 -0.05 0.106363 -0.900818 -0.0500717 0.10614 -0.800636 -0.0501406 0.105869 -0.700455
-0.0502343 0.105553 -0.600274 -0.0503953 0.105016 -0.50009 -0.0506236 0.104262 -0.424996 -0.0508956
0.103684 -0.349901 -0.051227 0.103087 -0.274807 -0.0515621 0.102563 -0.199711 -0.051843 0.102145
-0.124607 -0.052166 0.102051 -0.0496042 -0.0523968 0.102169 0.025398 -0.0525715 0.102399 0.1004
-0.0527333 0.102709 0.175402 -0.0529144 0.103101 0.250412 -0.0531147 0.103574 0.400347 -0.053483
0.104557 0.550283 -0.0538455 0.10542 0.70022 -0.0541695 0.106195 0.850157 -0.0544635 0.106807
1.00009 -0.0547271 0.107253 1.15007 -0.0551291 0.107516 1.30006 -0.0553863 0.107809 1.45005
-0.0555963 0.108082 1.60003 -0.0558004 0.108323 1.75002 -0.0559987 0.108531 1.90002 -0.0562788
0.108677 2.05002 -0.0564868 0.10883 2.20001 -0.0566891 0.108967 2.35001 -0.0568891 0.109087
2.50001 -0.0570868 0.10919 2.65001 -0.0573494 0.109261 2.80001 -0.0575608 0.109329 2.95001
-0.0577712 0.109389 3.10001 -0.057981 0.109442 3.25001 -0.0581902 0.109487 3.40001 -0.0584513
0.109524 3.55001 -0.0586672 0.109557 3.70001 -0.0588814 0.109589 3.85001 -0.0590944 0.109619
4 -0.0593062 0.109646 4.15 -0.0595625 0.109674 4.3 -0.0597796 0.109696 4.45
-0.0599951 0.109717 4.6 -0.0602094 0.109737 4.75 -0.0604224 0.109757 4.9 -0.0606735
0.109781 5.05 -0.0608897 0.109797 5.2 -0.0611045 0.109812 5.35 -0.0613181 0.109826
5.5 -0.0615304 0.10984 5.65 -0.0617761 0.109863 5.8 -0.0619907 0.109873 5.95
-0.062204 0.109884 6.1 -0.0624163 0.109894 6.25 -0.0626275 0.109904 6.4 -0.062868
0.109925 6.55 -0.0630807 0.109932 6.7 -0.0632922 0.10994 6.85 -0.0635027 0.109947
7 -0.0637122 0.109954 7.15 -0.0639479 0.109973 7.3 -0.0641584 0.109978 7.45
-0.0643677 0.109983 7.6 -0.0645761 0.109988 7.75 -0.0647835 0.109993 7.9 -0.0650144
0.110012 8.05 -0.0652224 0.110015 8.2 -0.0654293 0.110018 8.35 -0.0656353 0.110021
8.5 -0.0658403 0.110025 8.65 -0.0660663 0.110043 8.8 -0.0662714 0.110046 8.95
-0.0664754 0.110048 9.1 -0.0666783 0.11005 9.25 -0.0668802 0.110052 9.4 -0.067101
0.11007 9.55 -0.0673033 0.110071 9.7 -0.067505 0.110072 9.85 -0.0677063 0.110073
10 -0.067907 0.110074 -1.001 -0.05 0.158995 -0.900796 -0.0500822 0.158771 -0.800593
-0.050179 0.158427 -0.700392 -0.050331 0.157695 -0.600196 -0.0505508 0.15649 -0.499992 -0.05083
0.154661 -0.42472 -0.0514206 0.153069 -0.349437 -0.0518668 0.152159 -0.274149 -0.0522414 0.15161
-0.19886 -0.0526128 0.151333 -0.1237 -0.0529085 0.151403 -0.0487799 -0.0530161 0.151583 0.0261392
-0.0530747 0.152064 0.101056 -0.0531909 0.152755 0.175973 -0.0533333 0.153535 0.250948 -0.0534632
0.154345 0.400786 -0.0536305 0.155738 0.550627 -0.0540859 0.156898 0.70047 -0.0545085 0.157642
0.850313 -0.0548633 0.158232 1.00014 -0.0551876 0.158657 1.15012 -0.055651 0.158897 1.30009
-0.055969 0.159169 1.45007 -0.0562012 0.159433 1.60005 -0.0563625 0.159686 1.75002 -0.0565181
0.159906 1.90002 -0.0567564 0.160064 2.05002 -0.0569222 0.160229 2.20002 -0.0570757 0.16038
2.35001 -0.0572203 0.160517 2.50001 -0.0573627 0.160636 2.65001 -0.0575705 0.160723 2.80001
-0.057727 0.160807 2.95001 -0.0578811 0.160884 3.10001 -0.0580336 0.160954 3.25001 -0.0581856
0.161017 3.40001 -0.0583896 0.161071 3.55001 -0.0585484 0.161122 3.70001 -0.0587046 0.161172
3.85001 -0.0588588 0.16122 4 -0.0590118 0.161267 4.15 -0.0592093 0.161314 4.3
-0.0593678 0.161354 4.45 -0.0595238 0.161394 4.6 -0.059678 0.161434 4.75 -0.0598309
0.161472 4.9 -0.0600216 0.161516 5.05 -0.0601778 0.161551 5.2 -0.0603319 0.161585
5.35 -0.0604842 0.161619 5.5 -0.0606353 0.161652 5.65 -0.0608194 0.161694 5.8
-0.0609728 0.161724 5.95 -0.0611244 0.161754 6.1 -0.0612744 0.161783 6.25 -0.0614234
0.161812 6.4 -0.0616012 0.161852 6.55 -0.0617517 0.161878 6.7 -0.0619005 0.161905
6.85 -0.0620479 0.16193 7 -0.0621943 0.161956 7.15 -0.0623663 0.161994 7.3
-0.0625137 0.162018 7.45 -0.0626596 0.162042 7.6 -0.0628041 0.162065 7.75 -0.0629477
0.162089 7.9 -0.0631141 0.162126 8.05 -0.0632583 0.162148 8.2 -0.063401 0.162169
8.35 -0.0635425 0.162191 8.5 -0.0636831 0.162213 8.65 -0.063844 0.16225 8.8
-0.0639846 0.16227 8.95 -0.0641238 0.162291 9.1 -0.0642615 0.162311 9.25 -0.0643983
0.162331 9.4 -0.0645533 0.162367 9.55 -0.0646905 0.162386 9.7 -0.0648268 0.162405
9.85 -0.0649624 0.162424 10 -0.0650976 0.162442 -1.001 -0.05 0.211626 -0.94764
-0.0500767 0.21147 -0.89428 -0.0501576 0.21128 -0.840921 -0.0502426 0.211056 -0.787562 -0.0503713
0.210767 -0.72442 -0.0506066 0.21029 -0.679521 -0.0508769 0.209643 -0.634627 -0.0512035 0.208769
-0.589736 -0.0515335 0.207759 -0.544848 -0.051868 0.206612 -0.499928 -0.0522082 0.205325 -0.469085
-0.0524983 0.204266 -0.438244 -0.0527979 0.203144 -0.407398 -0.0530808 0.202152 -0.376548 -0.0533484
0.201284 -0.327057 -0.0537614 0.200029 -0.286607 -0.0540821 0.199152 -0.246152 -0.0544026 0.198499
-0.205694 -0.0547268 0.198148 -0.165234 -0.0550141 0.198074 -0.124888 -0.0552285 0.198254 -0.0496154
-0.0555054 0.198977 0.025655 -0.0556154 0.199926 0.100921 -0.0556995 0.201191 0.176185 -0.0558159
0.202528 0.248674 -0.0559207 0.203616 0.249236 -0.0559213 0.203624 0.249798 -0.055922 0.203631
0.250361 -0.0559226 0.203638 0.250923 -0.0559233 0.203645 0.251485 -0.055924 0.203653 0.326243
-0.0560112 0.204611 0.401001 -0.0561 0.205445 0.475761 -0.0561903 0.206154 0.550522 -0.0563083
[...]
POINT_DATA 2605
FIELD attributes 4
age 1 2605 float
0 0.00501119 0.0100224 0.0150336 0.0200447 0.0250559 0.0288055 0.0325532 0.0363009 0.0400486 0.0437964
0.0475448 0.0512905 0.0550361 0.0587817 0.0625273 0.0700241 0.077523 0.085022 0.092521 0.10002
0.10752 0.11502 0.122519 0.130019 0.137519 0.145019 0.152519 0.160019 0.167519 0.175018
0.182518 0.190018 0.197518 0.205017 0.212517 0.220017 0.227516 0.235016 0.242516 0.250015
0.257515 0.265015 0.272515 0.280015 0.287514 0.295014 0.302514 0.310014 0.317513 0.325013
0.332513 0.340013 0.347512 0.355012 0.362512 0.370012 0.377512 0.385011 0.392511 0.400011
0.407511 0.41501 0.42251 0.43001 0.43751 0.44501 0.452509 0.460009 0.467509 0.475009
0.482509 0.490008 0.497508 0.505008 0.512508 0.520008 0.527507 0.535005 0.542502 0.549999
0 0.0050256 0.0100524 0.0150733 0.0200861 0.0250908 0.0288297 0.0325628 0.0362892 0.0400089
0.0437225 0.0474289 0.0511285 0.0548263 0.0585241 0.0622236 0.0696349 0.0770712 0.0845221 0.0919876
0.0994676 0.106805 0.114143 0.121482 0.128823 0.134685 0.135137 0.13559 0.136043 0.136496
0.136948 0.144448 0.151948 0.159447 0.166945 0.174443 0.181941 0.189438 0.196934 0.204431
0.211928 0.219424 0.226921 0.234417 0.241914 0.249411 0.256908 0.264405 0.271902 0.279399
0.286896 0.294394 0.301892 0.309389 0.316887 0.324385 0.331883 0.339381 0.346879 0.354377
0.361875 0.369374 0.376872 0.384371 0.391869 0.399368 0.406867 0.414366 0.421865 0.429364
0.436863 0.444363 0.451862 0.459361 0.466861 0.47436 0.481861 0.48936 0.49686 0.50436
0.51186 0.519361 0.526861 0.534361 0.541862 0.549362 0 0.00502757 0.0100569 0.0150804
0.0200974 0.0251081 0.0288549 0.0325947 0.0363253 0.0400511 0.0437673 0.0474722 0.0511715 0.0548697
0.058567 0.0622639 0.069663 0.0770887 0.0845322 0.0919974 0.0994839 0.106986 0.114489 0.121996
0.129504 0.137013 0.144526 0.152034 0.159542 0.167049 0.174555 0.182067 0.189572 0.197076
0.204581 0.212085 0.219596 0.2271 0.234604 0.242109 0.249613 0.257124 0.264629 0.272134
0.279639 0.287143 0.294655 0.30216 0.309665 0.31717 0.324676 0.332188 0.339693 0.347199
0.354704 0.36221 0.369722 0.377228 0.384734 0.39224 0.399746 0.407259 0.414765 0.422271
0.429777 0.437284 0.444797 0.452304 0.45981 0.467317 0.474824 0.482338 0.489845 0.497352
0.504859 0.512366 0.51988 0.527388 0.534895 0.542402 0.54991 0 0.00502968 0.0100653
0.015098 0.0201248 0.0251467 0.028912 0.0326656 0.0364074 0.040139 0.0438538 0.0475488 0.0512387
0.0549278 0.0586162 0.062308 0.0696961 0.0771199 0.0845733 0.0920426 0.0995327 0.107043 0.114555
0.122071 0.129592 0.137114 0.144642 0.152163 0.159685 0.167206 0.174727 0.182252 0.189772
0.197291 0.20481 0.212329 0.219854 0.227372 0.234891 0.24241 0.249929 0.257454 0.264973
0.272492 0.280012 0.287531 0.295057 0.302576 0.310096 0.317616 0.325135 0.332662 0.340182
0.347702 0.355222 0.362742 0.370269 0.377789 0.385309 0.39283 0.40035 0.407878 0.415398
0.422919 0.43044 0.437961 0.445489 0.45301 0.460531 0.468052 0.475573 0.483102 0.490623
0.498145 0.505666 0.513188 0.520717 0.528239 0.535761 0.543283 0.550805 0 0.00268209
0.00536584 0.00805125 0.010736 0.0139109 0.0161669 0.0184226 0.0206774 0.0229314 0.0251863 0.0267321
0.0282759 0.0298167 0.0313544 0.0338156 0.0358194 0.0378177 0.0398109 0.0417987 0.0437754 0.0474545
0.0511353 0.0548176 0.0585065 0.0620697 0.0620974 0.0621251 0.0621528 0.0621805 0.0622082 0.0658915
0.0695845 0.0732874 0.0770004 0.0807232 0.0813104 0.0818977 0.082485 0.0830723 0.0836451 0.0868066
0.0899705 0.0931368 0.0963057 0.0994764 0.106995 0.114514 0.122039 0.129568 0.137103 0.144643
0.152178 0.159712 0.167247 0.174781 0.182321 0.189854 0.197387 0.20492 0.212452 0.219991
0.227523 0.235056 0.242589 0.250121 0.257661 0.265193 0.272726 0.280259 0.287793 0.295333
0.302866 0.310399 0.317933 0.325466 0.333007 0.34054 0.348074 0.355608 0.363142 0.370683
0.378217 0.385751 0.393286 0.40082 0.408361 0.415896 0.423431 0.430966 0.4385 0.446042
0.453577 0.461112 0.468647 0.476183 0.483725 0.49126 0.498796 0.506331 0.513867 0.52141
0.528945 0.536481 0.544017 0.551553 0 0.00126434 0.00252905 0.00379444 0.00506062 0.00632762
0.0101147 0.0139101 0.0177171 0.0215304 0.0253261 0.02692 0.0285036 0.0300802 0.0316495 0.0330782
0.0333878 0.033697 0.034006 0.0343147 0.0346234 0.036451 0.0382715 0.0400832 0.0418896 0.0436869
0.0454869 0.0472921 0.0491093 0.0509317 0.0527583 0.0528264 0.0528946 0.0529627 0.0530309 0.0531006
0.0548633 0.0566291 0.058398 0.0601701 0.0619452 0.0656422 0.0693558 0.0730869 0.0768284 0.0805782
0.0843402 0.0881013 0.091863 0.0956271 0.0993938 0.106927 0.114462 0.122001 0.129545 0.137092
0.144655 0.152205 0.159755 0.167304 0.174854 0.182411 0.18996 0.197509 0.205057 0.212605
0.220161 0.227709 0.235257 0.242805 0.250353 0.257909 0.265457 0.273005 0.280554 0.288103
0.295659 0.303207 0.310756 0.318305 0.325854 0.333411 0.34096 0.348509 0.356058 0.363608
0.371165 0.378714 0.386264 0.393813 0.401363 0.408921 0.41647 0.42402 0.43157 0.43912
0.446678 0.454228 0.461778 0.469329 0.476879 0.484437 0.491988 0.499538 0.507089 0.514639
0.522198 0.529749 0.537299 0.54485 0.552401 0 0.00126533 0.00253117 0.00379752 0.00506439
0.00633178 0.00822593 0.0101224 0.0120214 0.0139232 0.015827 0.0177442 0.0196662 0.0215892 0.0235153
0.0254536 0.0264245 0.0273926 0.0283563 0.0293156 0.0302746 0.0307526 0.031229 0.0317032 0.0321754
0.0326961 0.0331476 0.0335971 0.0340446 0.0344902 0.0349332 0.035843 0.0367494 0.0376518 0.0385501
0.0394395 0.0403282 0.0412155 0.0421021 0.0429885 0.0438757 0.0451088 0.0463474 0.0475918 0.0488417
0.0489776 0.0497556 0.0505352 0.0513164 0.0520993 0.0528831 0.0547118 0.056554 0.0584076 0.0602678
0.0621289 0.0639999 0.0658718 0.0677457 0.0696221 0.0715025 0.0733901 0.0752723 0.0771509 0.0790313
0.0809165 0.0839256 0.0869385 0.0899526 0.0929678 0.0955777 0.0964407 0.0973037 0.098167 0.0990304
0.0998939 0.107479 0.115066 0.122658 0.130256 0.13786 0.145489 0.153092 0.160692 0.168291
0.17589 0.183508 0.191104 0.198699 0.206294 0.213889 0.221502 0.229096 0.236689 0.244283
0.251877 0.259488 0.267082 0.274674 0.282267 0.289861 0.297471 0.305064 0.312657 0.320249
0.327842 0.335451 0.343044 0.350636 0.358229 0.365821 0.373429 0.381021 0.388613 0.396205
0.403798 0.411404 0.418996 0.426588 0.434179 0.441772 0.449377 0.456969 0.46456 0.472151
0.479743 0.487347 0.494939 0.50253 0.510121 0.517712 0.525314 0.532906 0.540496 0.548087
0.555678 0 0.00126269 0.00252604 0.00379043 0.00505597 0.00632269 0.00823249 0.0101443 0.0120598
0.0139787 0.0159028 0.0178198 0.0197497 0.0216924 0.0236477 0.0256255 0.0266252 0.0276256 0.0286264
0.0296262 0.0306379 0.0308823 0.0311268 0.0313709 0.031613 0.0318011 0.0325536 0.0332934 0.0340201
0.0347329 0.0354374 0.0358837 0.0363284 0.0367714 0.037213 0.0376487 0.0380854 0.0385194 0.0389508
0.0393815 0.0398102 0.0402418 0.0406734 0.0411053 0.0415377 0.041973 0.0424084 0.0428432 0.0432787
0.043715 0.0441537 0.0450307 0.0459176 0.0468154 0.0477233 0.0486477 0.049342 0.0500359 0.0507318
0.0514305 0.0522859 0.0524952 0.0527046 0.0529141 0.0531238 0.0533338 0.0542872 0.0552386 0.0561921
0.0571502 0.0581099 0.0590775 0.0600448 0.061013 0.061984 0.0629566 0.0649207 0.0668798 0.068834
0.0707919 0.0727338 0.0746627 0.0766057 0.0785628 0.0805238 0.0824883 0.0864353 0.0903749 0.0942902
0.0981933 0.102098 0.109903 0.117678 0.125389 0.133049 0.140715 0.14841 0.156084 0.163754
0.171418 0.179081 0.18676 0.194422 0.202081 0.209739 0.217396 0.225068 0.232724 0.24038
0.248034 0.255688 0.263355 0.271009 0.278662 0.286313 0.293965 0.301629 0.309281 0.316931
0.324581 0.332231 0.339891 0.34754 0.355189 0.362837 0.370484 0.378142 0.385789 0.393436
0.401081 0.408727 0.416381 0.424027 0.431672 0.439316 0.44696 0.454611 0.462255 0.469898
0.47754 0.485182 0.492831 0.500473 0.508114 0.515754 0.523394 0.531039 0.538679 0.546318
0.553957 0.561596 0 0.00126432 0.00252928 0.00379489 0.00506114 0.00632863 0.00824548 0.0101647
0.0120873 0.0140161 0.015957 0.0169269 0.0178997 0.0188757 0.0198548 0.0208371 0.0218246 0.0228201
0.0238247 0.0248382 0.0258621 0.0263796 0.0268988 0.0274218 0.0279483 0.0284812 0.0287629 0.029046
0.0293312 0.029619 0.0297184 0.0300247 0.0303325 0.0306414 0.03095 0.0312672 0.0313722 0.0314771
0.0315822 0.0316876 0.0317627 0.0317853 0.0318078 0.0318303 0.0318529 0.0318747 0.0320427 0.0322106
0.0323783 0.0325459 0.0327149 0.0328884 0.0330614 0.0332341 0.033404 0.0335304 0.0336405 0.03375
0.0338588 0.0339666 0.034076 0.0341933 0.0343088 0.0344227 0.0345354 0.0346263 0.0346701 0.0347138
0.0347573 0.0348005 0.034843 0.0349449 0.0350463 0.0351472 0.0352477 0.0353463 0.0354625 0.0355774
0.0356909 0.0358035 0.0359838 0.0360918 0.0361995 0.0363068 0.0364139 0.0365091 0.0366049 0.0367008
0.0367967 0.0368925 0.0370785 0.0371871 0.0372956 0.0374039 0.0375121 0.037619 0.0378375 0.0380545
0.0382717 0.0384897 0.0387043 0.0389222 0.0391396 0.0393574 0.0395756 0.0397937 0.0400143 0.0402336
0.0404531 0.0406728 0.0408931 0.0411132 0.0413328 0.0415529 0.0417737 0.0419967 0.042221 0.0424434
0.0426664 0.04289 0.0431146 0.0434435 0.0437739 0.0441095 0.0444508 0.0446216 0.0447861 0.0449509
0.0451162 0.0452818 0.0454487 0.0459365 0.046417 0.046898 0.0473743 0.047872 0.0483901 0.048898
0.0494085 0.0499237 0.0504459 0.050514 0.0505823 0.0506507 0.0507192 0.0507864 0.0517993 0.0528555
0.0539553 0.0550133 0.0560806 0.0572775 0.0584533 0.0596326 0.0608169 0.062 0.0624488 0.0628967
0.0633444 0.0637923 0.0643076 0.0650512 0.0657877 0.0665225 0.067259 0.0679943 0.0680515 0.0681086
0.0681656 0.0682226 0.0682792 0.0694092 0.0705274 0.0716435 0.0727574 0.073865 0.0750083 0.0761732
0.0773417 0.0785118 0.0796845 0.0813389 0.0829944 0.0846575 0.0863185 0.088548 0.0890523 0.089555
0.0900562 0.0905559 0.091054 0.0955109 0.0999457 0.104319 0.108615 0.112785 0.120929 0.129014
0.137033 0.144986 0.152866 0.160624 0.168383 0.176139 0.183892 0.191643 0.199389 0.207136
0.214881 0.222624 0.230365 0.238103 0.24584 0.253576 0.261311 0.269044 0.272159 0.275273
0.278387 0.281501 0.284629 0.289242 0.293855 0.298468 0.303081 0.307694 0.315419 0.323148
0.330878 0.338607 0.346336 0.354054 0.361783 0.369511 0.37724 0.384969 0.39268 0.400408
0.408137 0.415865 0.423593 0.431298 0.439026 0.446753 0.454481 0.462208 0.469908 0.477634
0.485361 0.493088 0.500814 0.508509 0.516234 0.52396 0.531685 0.53941 0.547099 0.554822
0.562545 0.570268 0.577992 0 0.00125404 0.00250901 0.00376529 0.005023 0.00628228 0.0082134
0.0101472 0.0120838 0.0140275 0.0159854 0.0169579 0.0179343 0.0189148 0.0198993 0.0208879 0.0218822
0.0228873 0.023904 0.0249324 0.0259739 0.0265024 0.0270341 0.0275726 0.0281178 0.0286719 0.0292374
0.0298106 0.0303965 0.0309964 0.0316235 0.0319424 0.0322614 0.0325812 0.0329019 0.0332374 0.0332825
0.0333276 0.0333728 0.0334179 0.0334576 0.0335659 0.0336741 0.0337797 0.033884 0.0339603 0.0341283
0.034293 0.0344547 0.0346129 0.034776 0.0349214 0.0350641 0.035204 0.0353404 0.0354616 0.0355791
0.0356962 0.0358128 0.0359278 0.0360371 0.0361565 0.0362727 0.0363858 0.0364983 0.0366479 0.0367523
0.0368564 0.0369604 0.0370642 0.0371597 0.0373139 0.0374682 0.0376244 0.0377825 0.0380562 0.038349
0.0386477 0.0389476 0.0392441 0.0395327 0.0399955 0.0404515 0.0409042 0.0413539 0.0417994 0.0422611
0.0427049 0.0431516 0.0436015 0.0440563 0.0445355 0.0450091 0.0454869 0.0459696 0.0464619 0.0471713
0.047895 0.0486273 0.0493718 0.0494945 0.0499575 0.0504204 0.0508819 0.0513417 0.0518034 0.0529334
0.054057 0.0552041 0.056373 0.0575828 0.0588515 0.0600928 0.06131 0.062534 0.063765 0.0647703
0.0657605 0.0667462 0.0677254 0.069126 0.0692924 0.0694588 0.0696254 0.0697922 0.0699591 0.0704332
0.070908 0.0713824 0.0718572 0.0723883 0.0725202 0.0726521 0.0727839 0.0729157 0.0730474 0.0736661
0.0742827 0.0748992 0.0755154 0.0761277 0.0773619 0.0785983 0.0798427 0.081091 0.0823384 0.0848184
0.0873046 0.0897662 0.09219 0.094582 0.0991355 0.103644 0.108033 0.112304 0.117712 0.120225
0.122733 0.125235 0.127731 0.130537 0.136344 0.142061 0.147692 0.153239 0.158702 0.166461
0.174233 0.182003 0.189772 0.19754 0.205283 0.21305 0.220816 0.228581 0.236346 0.244078
0.251841 0.259604 0.267367 0.275131 0.282854 0.290616 0.298378 0.30614 0.313902 0.321619
0.329379 0.33714 0.3449 0.352661 0.360372 0.368131 0.37589 0.38365 0.391409 0.399113
0.406871 0.414629 0.422387 0.430146 0.437844 0.445601 0.453357 0.461114 0.46887 0.476564
0.484318 0.492073 0.499828 0.507583 0.515272 0.523025 0.530778 0.538531 0.546284 0.553966
0.561716 0.569465 0.577215 0.584965 0 0.00125895 0.00251858 0.00377888 0.0050406 0.00630396
0.0082325 0.010164 0.0120984 0.0140402 0.0159961 0.0169689 0.0179458 0.0189268 0.0199119 0.0209014
0.0218958 0.0229008 0.0239174 0.0249459 0.0259873 0.0265162 0.0270481 0.0275857 0.02813 0.0286837
0.0292467 0.0298174 0.0303978 0.0309908 0.0316135 0.0319299 0.032247 0.0325644 0.0328819 0.0332119
0.0334543 0.0336955 0.0339346 0.0341673 0.0342635 0.0343643 0.034464 0.0345627 0.0346604 0.0347606
0.0349639 0.0351602 0.0353498 0.0355333 0.0356915 0.0357682 0.0358447 0.0359206 0.0359957 0.0360692
0.0361068 0.0361441 0.0361815 0.0362189 0.0362599 0.0363763 0.0364918 0.0366064 0.03672 0.0368776
0.0369479 0.0370182 0.0370884 0.0371585 0.0372253 0.0376834 0.0381482 0.0386266 0.0391131 0.0395271
0.039989 0.0404398 0.040891 0.0413445 0.0418045 0.042281 0.0427474 0.0432132 0.0436811 0.0441542
0.0446476 0.0451288 0.0456106 0.0460977 0.0465922 0.0476286 0.0486845 0.0497538 0.050835 0.051866
0.051883 0.0519 0.051917 0.051934 0.0519511 0.0530763 0.0542256 0.0554009 0.0566015 0.057819
0.0590667 0.0603044 0.0615429 0.0627975 0.0640412 0.0646646 0.0652804 0.0658942 0.066506 0.0671185
0.0677406 0.0683579 0.0689778 0.0695997 0.0702191 0.0704209 0.0706228 0.0708246 0.0710263 0.0712722
0.0723091 0.073345 0.0743787 0.0754098 0.0764366 0.0772169 0.0779868 0.07876 0.0795363 0.0804308
0.0808823 0.0813343 0.0817857 0.0822352 0.0826846 0.0851736 0.0876453 0.0901001 0.0925126 0.0948978
0.099514 0.104087 0.108556 0.112908 0.117537 0.117581 0.117625 0.117669 0.117713 0.117756
0.125206 0.132545 0.139748 0.146819 0.158969 0.165093 0.171216 0.177337 0.183456 0.189689
0.191292 0.192896 0.194499 0.196102 0.197706 0.205445 0.213186 0.220927 0.228667 0.236406
0.244135 0.251873 0.259611 0.26735 0.275088 0.282808 0.290546 0.298283 0.306021 0.313758
0.321472 0.329208 0.336945 0.344682 0.352419 0.360126 0.367862 0.375598 0.383334 0.39107
0.398772 0.406506 0.414242 0.421977 0.429712 0.437408 0.445142 0.452876 0.46061 0.468344
0.476034 0.483767 0.4915 0.499233 0.506966 0.514652 0.522383 0.530115 0.537846 0.545577
0.553257 0.560986 0.568714 0.576443 0.584172 0 0.00127987 0.00256037 0.00384213 0.00512536
0.00641008 0.0083164 0.0102253 0.0121368 0.0140549 0.0159851 0.0169571 0.0179321 0.0189106 0.0198924
0.0208778 0.021872 0.0228752 0.0238883 0.0249113 0.0259465 0.0264104 0.0268761 0.0273455 0.0278187
0.0279346 0.0280678 0.0282012 0.0283346 0.028468 0.0286018 0.0291454 0.0296932 0.0302485 0.0308125
0.0313976 0.0314052 0.0314128 0.0314204 0.031428 0.0314355 0.0315076 0.0315797 0.0316517 0.0317237
0.0317866 0.0319996 0.0322124 0.0324251 0.0326377 0.0328537 0.032942 0.0330303 0.0331185 0.0332064
0.0332814 0.0334847 0.0336872 0.0338886 0.0340869 0.0342911 0.0343545 0.0344174 0.0344799 0.034542
0.0345962 0.0346067 0.0346172 0.0346276 0.0346381 0.0346484 0.0348579 0.0350629 0.0352638 0.0354571
0.0356416 0.0356686 0.0356956 0.0357226 0.0357494 0.0357771 0.0358728 0.0359676 0.0360615 0.0361568
0.0362936 0.0363885 0.0364827 0.0365763 0.0366691 0.0367592 0.0368743 0.0369883 0.0371018 0.0372154
0.037387 0.0374726 0.037558 0.0376436 0.0377298 0.0378146 0.038027 0.0382376 0.0384482 0.0386582
0.0388706 0.0390908 0.0393066 0.0395179 0.0397295 0.0399438 0.0401604 0.0403753 0.0405888 0.0408029
0.0410205 0.0412427 0.0414614 0.0416781 0.0418951 0.0421134 0.0423329 0.0425509 0.0427683 0.0429862
0.043206 0.0436531 0.0441002 0.0445506 0.0450043 0.0454661 0.0459465 0.0464138 0.0468745 0.0473383
0.0478149 0.0482998 0.048781 0.0492609 0.0497455 0.0502383 0.0512617 0.052289 0.0533254 0.0544115
0.0555212 0.055973 0.0564254 0.0568796 0.0573362 0.0578264 0.058533 0.0592391 0.0599473 0.0606598
0.0613793 0.0625917 0.0637733 0.0649452 0.0661339 0.06734 0.068581 0.0697921 0.0709814 0.0721597
0.0733305 0.0742361 0.0751371 0.0760395 0.0769432 0.0779567 0.0782098 0.0784625 0.078715 0.0789675
0.07922 0.0815808 0.0839411 0.0863 0.088635 0.0909335 0.0954442 0.100006 0.104475 0.108777
0.112977 0.121271 0.129531 0.137735 0.145767 0.153631 0.161371 0.169111 0.176848 0.184581
0.192312 0.200037 0.207764 0.215489 0.223212 0.230933 0.23865 0.246368 0.254085 0.261801
0.269515 0.277227 0.284939 0.29265 0.30036 0.308068 0.312328 0.316587 0.320845 0.325104
0.329365 0.332811 0.336258 0.339705 0.343151 0.346598 0.3543 0.362004 0.369709 0.377414
0.385119 0.392816 0.40052 0.408225 0.415929 0.423634 0.431325 0.439029 0.446733 0.454437
0.462141 0.469827 0.47753 0.485234 0.492938 0.500641 0.508322 0.516025 0.523728 0.53143
0.539132 0.546808 0.554509 0.56221 0.569911 0.577612 0 0.00127749 0.00255568 0.00383499
0.00511558 0.00639746 0.00829897 0.0102024 0.0121087 0.0140199 0.0159392 0.0169033 0.0178694 0.0188374
0.0198077 0.0207802 0.021754 0.0227329 0.0237171 0.0247059 0.0256985 0.0266894 0.0276868 0.0286928
0.0296942 0.0307036 0.030785 0.0308663 0.0309477 0.0310288 0.0311033 0.0320201 0.0329178 0.0337955
0.0346524 0.0355074 0.0359562 0.0364027 0.0368472 0.0372907 0.0377287 0.0381683 0.0386054 0.0390417
0.0394774 0.0399071 0.0403412 0.0407754 0.04121 0.0416448 0.0420799 0.042517 0.0429529 0.0433897
0.0438274 0.0442668 0.0451462 0.0460335 0.0469272 0.0478285 0.048753 0.0497017 0.0506409 0.0515708
0.0525071 0.0534551 0.0543766 0.0553068 0.0562404 0.0571765 0.0587683 0.059664 0.0605606 0.0614571
0.0623533 0.0632484 0.0652523 0.0672409 0.0692191 0.0712074 0.0731996 0.0751643 0.0771576 0.0791621
0.0811709 0.0831823 0.0872079 0.091255 0.0952669 0.099224 0.103175 0.106796 0.110426 0.114059
0.117681 0.122161 0.126288 0.130395 0.134482 0.138548 0.142594 0.150305 0.158018 0.165728
0.173436 0.181142 0.188836 0.196537 0.204237 0.211935 0.219632 0.22732 0.235014 0.242707
0.250398 0.258089 0.265773 0.273461 0.281149 0.288836 0.296522 0.304202 0.311886 0.319569
0.327252 0.334934 0.34261 0.35029 0.357969 0.365647 0.373324 0.380998 0.388673 0.396348
0.404022 0.411696 0.419366 0.427038 0.43471 0.44238 0.45005 0.457717 0.465386 0.473054
0.480721 0.488387 0.496052 0.503717 0.511382 0.519045 0.526708 0.534369 0.54203 0.549691
0.557352 0.565012 0 0.00127407 0.00254876 0.00382391 0.00510028 0.00637788 0.00827376 0.0101718
0.0120721 0.0139755 0.0158829 0.0177923 0.019707 0.0216266 0.023551 0.0254834 0.0264546 0.0274227
0.028386 0.0293443 0.0300007 0.0310118 0.0320152 0.0330084 0.0339916 0.0349635 0.0358732 0.0367798
0.0376822 0.0385817 0.0394721 0.0403637 0.0412537 0.0421426 0.0430305 0.0439173 0.0456955 0.0474906
0.0492998 0.0511185 0.0529532 0.054013 0.0550745 0.0561393 0.0572073 0.0589922 0.0596376 0.0602839
0.0609312 0.0615794 0.0622285 0.0641038 0.0659819 0.0678629 0.0697466 0.0716324 0.073528 0.0754161
0.0773052 0.0791958 0.0810874 0.0848853 0.0886831 0.0924858 0.0962935 0.100114 0.107818 0.115526
0.123183 0.130805 0.13844 0.146089 0.153735 0.161381 0.169024 0.176666 0.184313 0.191955
0.199597 0.207237 0.214875 0.222517 0.230156 0.237793 0.24543 0.253065 0.260704 0.26834
0.275975 0.283609 0.291242 0.298879 0.306512 0.314145 0.321777 0.329408 0.337042 0.344673
0.352304 0.359933 0.367562 0.375194 0.382823 0.390452 0.39808 0.405707 0.413336 0.420963
0.42859 0.436216 0.443841 0.451468 0.459094 0.466718 0.474342 0.481966 0.489591 0.497215
0.504837 0.512459 0.520081 0.527704 0.535325 0.542945 0.550565 0.558185 0 0.00127141
0.0025432 0.00381553 0.00508845 0.00636197 0.0101414 0.0139325 0.0177229 0.0215101 0.0253015 0.0257982
0.0262937 0.0267882 0.0272819 0.0277126 0.0290978 0.0304779 0.0318529 0.0332229 0.0345904 0.0364323
0.0382648 0.0400805 0.041892 0.0436985 0.0455104 0.0473196 0.0491299 0.0509486 0.0527783 0.0546142
0.0564513 0.0582911 0.0601338 0.0619791 0.06568 0.0693949 0.0731252 0.0768713 0.0806221 0.0843937