# vtk DataFile Version 2.0
sampleSurface
ASCII
DATASET POLYDATA
POINTS 2021 float
-0.500032 0 0.11501 -0.499951 3.38813e-21 0.0392727 -0.789037 8.47033e-21 0.120673 -0.500013 -1.35525e-20
0.193965 1.00003 0 0.0485099 1.00003 0 0.0478584 0.475202 0 0.0353615
0.250044 1.41878e-20 0.0305359 0.2506 -5.42101e-20 0.117067 0.251301 0 0.203885 0.364989
0 0.203772 1.75002 0 0.113255 1.75002 0 0.0564279 2.50001 6.89146e-18
0.059229 2.21354 0 0.250758 2.50001 0 0.252875 3.25001 -3.47927e-17 0.0598775
3.25001 -1.69407e-21 0.253888 4.00001 5.60566e-18 0.0599857 4 0 0.253986 4.75
-1.79088e-17 0.0599988 4.75 8.47033e-22 0.253998 5.5 -2.79246e-17 0.0599999 5.5 -4.23516e-22
0.253999 6.25 1.01187e-17 0.06 6.25 0 0.254 7 2.93732e-17 0.06
7 0 0.254 7.75 -2.65294e-17 0.06 7.75 0 0.254 8.5
1.8923e-17 0.06 8.5 0 0.254 9.25 -2.88552e-17 0.06 9.25 -5.29396e-23
0.254 10 -2.64698e-23 0.254 10 0 0.06 -4.24997 0 0.0599042
-5 0 0.0599861 -5 0 0.253986 -4.24997 0 0.253912 -3.49995
0 0.0593815 -3.49994 0 0.253441 -2.74993 0 0.0570188 -2.74991 0
0.251316 -1.99991 0 0.0492276 -1.99987 0 0.242776 -1.24992 -1.69407e-21 0.03
-1.24985 1.23328e-17 0.222327 -1.24989 3.38813e-21 0.125756 -0.874924 2.08116e-17 0.03 -0.874929
0 0.122356 -0.124951 -8.47033e-22 0.03 -0.499941 0 0.03 -0.124922 -8.47033e-22
0.0385291 1.00021 0 0.231242 0.625368 0 0.203537 0.25004 -2.11758e-22 0.03
1.75003 0 0.247334 1.92873 1.69407e-21 0.441438 2.50001 0 0.447397 3.25
-1.69407e-21 0.447898 4 0 0.447986 4.75 0 0.447997 5.5 -4.23516e-22
0.447999 6.25 4.23516e-22 0.447999 7 0 0.448 7.75 -1.05879e-22 0.448
8.5 0 0.448 9.25 0 0.448 10 -2.64698e-23 0.448 -5
-8.47033e-22 0.447985 -4.24997 0 0.447919 -3.49993 0 0.4475 -2.74988 0
0.445609 -1.9998 6.77626e-21 0.437758 -1.24969 1.61411e-17 0.417681 -1.24976 -6.77626e-21 0.31973
-0.875161 7.70461e-18 0.216228 -0.875403 0 0.312476 -0.499924 -8.74138e-19 0.250039 -0.312433
0 0.250037 -0.312436 0 0.200025 -0.499924 0 0.200026 0.250062 3.38813e-21
0.24921 0.250039 -1.69407e-21 0.250046 0.250032 0 0.300069 0.437526 3.05948e-18 0.300066
0.625026 0 0.30005 1.00072 -8.23994e-18 0.326497 1.00196 0 0.423 1.75013
0 0.439575 1.75013 1.77877e-20 0.448245 1.00135 0 0.537141 1.00002 0
0.61834 1.74999 2.71051e-20 0.633055 2.49999 -3.38813e-21 0.641448 3.25 0 0.641907
4 -1.69407e-21 0.641985 4.75 -8.47033e-22 0.641996 5.5 -4.23516e-22 0.641998 6.25
0 0.641999 7 0 0.641999 7.75 0 0.642 8.5 5.29396e-23
0.642 9.25 -5.29396e-23 0.642 10 0 0.642 -5 0 0.641985
-4.24997 -1.69407e-21 0.641926 -3.49993 0 0.641557 -2.74988 0 0.639897 -1.99989
6.77626e-21 0.63382 -1.25099 2.55465e-18 0.614606 -1.25 -2.71051e-20 0.515981 -0.878244 0
0.50789 -0.875961 2.71051e-20 0.459694 -0.875609 0 0.410432 -0.498432 0 0.400603
-0.498071 -1.70762e-18 0.413126 -0.450805 0 0.413349 -0.45095 0 0.400955 0.250009
1.89735e-19 0.412703 0.25 2.71051e-20 0.425212 0.296872 1.00289e-18 0.425187 0.343754 -2.71051e-20
0.425153 0.343763 0 0.400146 0.250006 0 0.400175 1.00162 1.41488e-17 0.520353
-2 4.23516e-22 0.820145 -2.09502 -2.11758e-22 0.830091 -2 0 0.829497 -1.25123
0 0.813251 -1.25126 0 0.713737 -1.25101 6.77626e-21 0.62198 1.00059 0
0.714169 1.00094 0 0.809205 1.75018 0 0.82775 2.5 0 0.835521
3.25 0 0.835917 4 -1.69407e-21 0.835986 4.75 -8.47033e-22 0.835996 5.5
0 0.835998 6.25 0 0.835999 7 0 0.835999 7.75 0
0.836 8.5 0 0.836 9.25 0 0.836 10 0 0.836
-5 -8.47033e-22 0.835986 -4.24997 0 0.835935 -3.49995 0 0.835616 -2.74991
0 0.83419 -0.970118 0 0.703382 -0.87455 0 0.699864 -0.874264 -2.71051e-20
0.649852 -0.874033 -2.71051e-20 0.599873 -0.49698 0 0.599585 -0.497345 -9.21572e-19 0.612046
-0.450014 0 0.611892 -0.44938 2.71051e-20 0.599454 -2.00002 0 0.84097 -1.84639
-3.38813e-21 1.02215 -1.25185 0 1.01276 -0.896512 -3.38813e-21 0.900668 -0.908183 6.77626e-21
0.801076 -0.904022 -1.86347e-20 1.00093 0.624925 0 0.799916 0.249931 0 0.799891
0.249978 0 0.899916 0.249997 0 0.999939 0.999987 0 0.999957 1.75061
-2.1684e-19 1.02409 2.50003 0 1.0296 3.25 -1.69407e-21 1.02993 4 0
1.02999 4.75 0 1.03 5.5 0 1.03 6.25 2.11758e-22 1.03
7 0 1.03 7.75 0 1.03 8.5 5.29396e-23 1.03 9.25
0 1.03 10 0 1.03 -5 0 1.02999 -4.24998 0
1.02994 -3.49996 -8.47033e-22 1.02968 -2.74996 0 1.02849 -2.00026 0 1.02458
-0.87482 0 0.799893 -0.87491 0 0.899919 -0.49993 0 0.799862 -0.499958
7.6233e-19 0.849889 -0.312476 0 0.849885 -0.312472 0 0.799853 -1.25001 8.04681e-21
1.19601 -0.499979 5.29396e-23 1.10737 -0.731886 2.11758e-22 1.19997 -0.499981 0 1.19997
-0.124987 0 0.999933 -0.477759 -5.29396e-23 0.999933 -0.487556 -1.45584e-22 1.09995 0.250008
0 1.19997 1 0 1.19997 1.7507 0 1.22203 2.50003 -1.35525e-20
1.22368 3.25 0 1.22394 4 0 1.22399 4.75 4.23516e-22 1.224
5.5 0 1.224 6.25 2.11758e-22 1.224 7 0 1.224 7.75
1.05879e-22 1.224 8.5 0 1.224 9.25 0 1.224 10 2.64698e-23
1.224 -5 4.23516e-22 1.22399 -4.24999 -4.23516e-22 1.22395 -3.49998 0 1.22374
-2.75001 0 1.22279 -2.00077 0 1.21965 -1.24997 4.23516e-22 1.19997 -0.499969
-5.29396e-23 0.999933 -0.874942 0 0.999936 -0.499979 -1.32349e-23 1.09995 -2.75001 0
1.36967 -3.18711 4.23516e-22 1.41751 -2.75001 4.23516e-22 1.4171 -2.00072 3.38813e-21 1.29692
-2.00065 0 1.41474 -1.25823 6.35275e-21 1.40014 -0.980416 0 1.39998 -0.499986
0 1.39998 0.250009 0 1.39998 1 0 1.39998 1.75054 0
1.41682 2.50002 -1.35525e-20 1.41776 3.25 0 1.41796 4 4.23516e-22 1.41799
4.75 0 1.418 5.5 0 1.418 6.25 0 1.418 7
0 1.418 7.75 0 1.418 8.5 0 1.418 9.25 0
1.418 10 0 1.418 -5 0 1.41799 -4.24999 0 1.41797
-3.49999 -4.23516e-22 1.41781 -1.24998 0 1.39998 -2.80392 1.32349e-23 1.61143 -2.75
-1.32349e-23 1.6114 -2.0003 0 1.60983 -1.25396 2.64698e-23 1.60004 -1.12789 2.64698e-23
1.59999 -0.49999 1.05879e-22 1.59999 0.250008 0 1.59999 1.00001 4.23516e-22 1.59999
1.75038 0 1.61122 2.50002 0 1.61184 3.25 -4.23516e-22 1.61197 4
-4.23516e-22 1.61199 4.75 0 1.612 5.5 0 1.612 6.25 0
1.612 7 0 1.612 7.75 5.29396e-23 1.612 8.5 2.64698e-23 1.612
9.25 -1.32349e-23 1.612 10 -1.32349e-23 1.612 -5 0 1.61199 -4.24999
0 1.61198 -3.49999 0 1.61187 -1.24999 0 1.59999 -2.75 -1.32349e-23
1.63714 -2.64195 -2.11758e-22 1.80559 -2.00012 -8.47033e-22 1.80492 -1.25741 0 1.80004
-1.19082 -7.94093e-23 1.8 -0.499992 1.05879e-22 1.79999 0.250006 2.11758e-22 1.79999 1
0 1.8 1.75023 0 1.80561 2.50001 3.38813e-21 1.80592 3.25 0
1.80599 4 0 1.806 4.75 2.11758e-22 1.806 5.5 0 1.806
6.25 0 1.806 7 0 1.806 7.75 0 1.806 8.5
2.64698e-23 1.806 9.25 0 1.806 10 0 1.806 -5 0
1.806 -4.25 -2.11758e-22 1.80599 -3.49999 0 1.80594 -2.75 -1.05879e-22 1.8057
-1.24999 0 1.8 -2 -4.76456e-22 1.98532 -1.20969 -1.65436e-23 2 -0.499993
0 2 0.250006 0 2 1 0 2 1.75 0
2 2.5 0 2 3.25 0 2 4 0 2
4.75 -1.05879e-22 2 5.5 0 2 6.25 0 2 7
5.29396e-23 2 7.75 0 2 8.5 0 2 9.25 0
2 10 -1.32349e-23 2 -5 2.21817e-18 2 -4.25 1.05879e-22 2
-3.49999 0 2 -2.74999 0 2 -1.99999 -5.29396e-23 2 -1.24999
3.30872e-24 2 0.0956945 -5.42101e-20 0.203879 0.0632748 0 0.203876 0.0625511 0
0.250042 -0.403589 6.77626e-21 0.40138 -0.405779 7.7927e-19 0.38799 -0.406379 -6.77626e-21 0.375196
-0.499567 -1.35525e-20 0.375265 0.250006 -6.50521e-19 0.375144 0.156247 0 0.375155 0.156237
9.41901e-19 0.400212 0.203129 0 0.400201 0.249796 0 0.59991 0.249852 -1.0842e-19
0.587433 0.202953 0 0.587417 0.202888 6.50521e-19 0.599901 0.625121 -6.77626e-21 0.499953
0.717439 6.77626e-21 0.504955 0.625095 6.77626e-21 0.475379 0.343596 1.0842e-19 0.599918 0.343639
0 0.574939 0.296781 0 0.574964 0.249926 0 0.574977 0.62499 -4.2826e-18
0.549927 0.624917 4.55365e-18 0.599925 0.203133 0 0.412725 -0.449046 0 0.587135
-0.496581 5.42101e-20 0.587161 0.625036 -9.32414e-18 0.40006 0.625067 1.13164e-18 0.450032 0.249704
0 0.624881 0.155871 0 0.599866 0.155839 1.95156e-18 0.624853 0.249886 1.35525e-20
0.749873 0.062411 0 0.749846 0.0624478 -4.26227e-18 0.799869 -0.312472 0 0.749804
-0.499901 -3.38813e-21 0.749824 -0.691227 0 0.30453 -0.499912 3.02221e-18 0.300065 -0.875784
-3.11708e-18 0.361353 -0.592465 -2.71051e-20 0.40036 -0.499854 0 0.350135 -0.687111 1.35525e-20
0.350117 -0.68656 -2.71051e-20 0.40021 0.437526 -1.35525e-20 0.400108 0.437522 6.77626e-21 0.350086
0.250015 -2.51399e-18 0.35011 0.625027 3.38813e-21 0.350064 -0.592287 0 0.425286 -0.498048
0 0.425444 -0.873902 5.42101e-18 0.54992 -0.496663 0 0.574746 -0.591532 0
0.574798 -0.591729 0 0.599734 -0.149108 0 0.406489 -0.149477 -5.29396e-23 0.403592
-0.149678 0 0.406489 -0.451876 -2.1684e-18 0.499977 -0.451579 0 0.487563 -0.498366
0 0.487552 -0.498515 -1.0842e-19 0.499993 0.437553 0 0.450075 0.437532 -6.07153e-18
0.425113 0.254621 -1.25361e-19 0.496697 0.26485 -5.42101e-20 0.498023 0.264831 0 0.496529
0.254636 -2.30393e-19 0.49668 0.570241 0 0.499932 0.437665 -2.71051e-20 0.474991 0.437859
-2.71051e-20 0.49988 0.437372 -1.0842e-19 0.599915 0.249722 3.25261e-19 0.649874 0.43732 -5.42101e-20
0.649899 0.624872 0 0.649914 0.624883 -3.95734e-18 0.699913 0.43734 6.83047e-18 0.699894
0.249817 0 0.699869 -0.592227 0 0.624743 -0.498071 -2.71051e-20 0.624658 -0.499769
6.77626e-21 0.69979 -0.687025 0 0.699824 -0.150854 -1.03677e-18 0.599678 -0.151059 -6.77626e-21
0.605522 -0.127339 6.77626e-21 0.605681 -0.127867 0 0.599582 -0.406139 -4.40457e-20 0.699754
-0.406113 0 0.674749 -0.499634 0 0.674774 -0.18433 -4.23516e-22 0.674527 -0.163626
-4.23516e-22 0.678958 -0.165125 0 0.674537 -0.171868 4.23516e-22 0.674524 -0.14924 3.34737e-19
0.400169 -0.125737 0 0.400165 -0.12551 0 0.393854 -0.149076 -2.11758e-22 0.393877
-0.499925 -2.61564e-18 0.325088 -0.406241 0 0.325087 -0.4062 0 0.300069 -0.124901
0 0.300062 -0.218633 -3.27294e-18 0.299673 -0.218596 1.35525e-20 0.324664 -0.124851 0
0.325085 -0.126061 7.86047e-19 0.406473 -0.0785222 1.30782e-18 0.400166 -0.126118 3.38813e-21 0.41275
-0.0785648 0 0.412729 0.240678 1.0842e-18 0.500153 0.252614 -2.1684e-19 0.498317 0.252386
1.0842e-19 0.496231 0.241035 0 0.496114 0.228892 -1.35525e-20 0.496204 0.228835 6.77626e-21
0.498715 0.229819 2.71051e-20 0.500074 0.25248 0 0.499935 0.240657 -1.6263e-19 0.500957
0.264863 0 0.500154 0.264689 0 0.500951 0.437443 0 0.549896 0.437406
[...]
POINT_DATA 2021
FIELD attributes 2
p 1 2021 float
1.9227 1.36199 2.34865 4.25901 0.0555758 0.0533764 -4.26495 -6.12789 -7.78899 -6.22888 -4.37056
0.506623 0.474139 0.120235 0.333818 0.179654 0.0120271 0.0301608 0.0096873 0.0140589 0.00684879
0.0099822 -0.000550272 0.00290464 -0.00303719 0.000396649 -0.00193936 0.00145495 -0.00119532 0.0022476 -0.0017148
0.001535 -0.00121302 0.00237898 0 0 0.635258 0.630733 0.630589 0.634981 0.656422
0.655538 0.727023 0.723924 0.948812 0.946038 1.65477 1.78085 1.79296 2.23343 2.47506
-4.17474 1.29329 -4.22899 0.67145 -0.128174 -6.11759 0.583239 0.460705 0.195709 0.0264361
0.000520692 -0.00117234 -0.00527992 -0.00619468 -0.0038991 -0.00177969 -0.00201605 0.0010044 0 0.630173
0.634232 0.653157 0.714984 0.926389 1.98505 2.05214 3.12721 3.88422 7.18366 -3.60823
-1.25212 4.47719 -5.76784 -5.75951 -2.31524 0.248181 0.802957 1.08826 0.984849 0.543542
0.539576 0.783071 0.79187 0.454889 0.177304 0.0210519 -0.00412602 -0.00306677 -0.00546086 -0.00633279
-0.00423361 -0.00202817 -0.00200216 0.000982409 0 0.629502 0.633065 0.649561 0.702424 0.887499
1.89142 2.17276 5.19732 5.64336 4.86536 32.5603 36.476 51.9943 45.9198 4.55844
4.86626 3.42155 3.47525 2.61184 3.81139 0.781248 0.834228 0.813322 0.831554 1.44412
1.83482 1.88723 0.958106 0.47285 0.362712 0.133512 0.0124417 -0.00264767 0.00214652 0.000783261
-0.00107086 -0.000183467 0.00119416 0.00138605 0.0024347 0 0.628648 0.631609 0.645171 0.687665
3.33938 3.85084 4.78137 4.84327 34.7183 33.0747 45.1399 51.255 0.827709 0.810008
0.979311 1.78276 2.72077 1.19886 0.031699 -5.07285 -5.41844 -2.77746 -0.242742 0.193813
0.0766385 -0.00536659 -0.011046 -0.00207211 -0.00157451 -0.00337076 -0.00269528 -0.00116985 -0.00046867 0.000122984
0 0.6277 0.630011 0.640387 0.67176 0.766167 2.84484 1.81439 5.46061 3.50782
0.856416 -0.259127 0.728665 0.380168 0.353944 0.188638 -1.66017 0.773312 0.351946 -0.96291
-0.404814 0.0991205 0.0689449 -0.00133911 -0.00973024 -0.000940106 -0.000335283 -0.00268358 -0.00242147 -0.000918541
-2.20207e-05 0.000349034 0 0.626757 0.628426 0.635575 0.655645 0.701898 0.723241 0.926527
1.21721 0.39552 0.644385 0.635168 0.640749 0.681343 0.649992 0.594015 0.412977 0.0914332
-0.552235 -0.384823 0.047206 0.0636165 -0.00270243 -0.0143037 -0.00443415 -0.00260099 -0.00460849 -0.00413238
-0.00231764 -0.00107988 -0.000511786 0 0.625914 0.626994 0.631174 0.593393 0.628853 0.628947
0.61437 0.521017 0.452885 0.105082 -0.423337 -0.35318 0.000367358 0.0526091 -0.00614595 -0.0181629
-0.00650028 -0.00326566 -0.00487737 -0.00430907 -0.00242464 -0.00107553 -0.000442372 0 0.625254 0.625844
0.627642 0.52052 0.627959 0.617495 0.59375 0.482382 0.452127 0.111884 -0.353521 -0.335539
-0.0257922 0.0476421 -0.00641796 -0.0193845 -0.00731925 -0.0034829 -0.00496534 -0.00443734 -0.00258844 -0.00120992
-0.00052386 0 0.624831 0.62508 0.625304 0.621493 0.48127 0.58739 0.449632 0.114061
-0.331381 -0.329755 -0.033934 0.0461618 -0.00646435 -0.0198731 -0.00774182 -0.00366668 -0.00505861 -0.00451116
-0.00265695 -0.00125813 -0.00054533 -0.000121865 0.624683 0.624806 0.624462 0.618944 0.586873 0.468688
-10.3943 -11.2616 -11.8975 70.1939 59.6445 43.4734 29.5888 2.60777 1.54911 4.16166
4.69567 3.31564 3.56217 4.84025 4.28143 1.98534 1.68991 2.12044 2.50421 2.98799
2.48443 3.05232 2.13639 1.76768 5.81027 56.7099 39.8081 1.95181 2.25959 3.24952
3.62407 1.77985 -4.73638 -11.7928 -10.2045 -2.51648 8.857 6.99419 11.8015 4.77577
17.4901 20.7263 9.14546 10.5508 2.53428 1.40687 0.82078 1.63194 19.7797 36.9627
5.69217 39.9781 20.5437 19.0544 -61.3742 -61.1079 -61.3775 68.6726 68.5492 47.7337
44.9895 3.51025 3.16627 -6.96976 -1.12413 -1.26499 -7.02425 2.54251 4.00822 3.88281
2.57293 1.72746 1.65654 1.53541 0.889016 0.70527 -1.4209 17.2548 28.4866 13.6698
7.45033 -59.3602 -58.7798 -63.4319 -63.6025 14.5738 19.8903 18.8966 -45.5632 -42.4962
-44.2546 -44.7746 -60.7894 -59.803 -59.6948 -60.0834 16.5008 15.558 11.7495 -29.7844
-28.6868 -46.347 -37.4964 -61.2402 -46.6603 -61.1674 -49.1619 10.6334 3.28851 10.1695
11.6334 8.75811 9.00465 9.28799 3.46635 10.7674 -0.549942 -0.806143 3.41821 3.10587
3.95521 4.10266 47.9807 68.5905 -63.5776 -59.4974 5.61167 10.7839 -55.7426 -56.7306
-63.0242 3.40465 5.32929 5.4742 5.64148 -31.8308 -41.1617 -47.7424 -28.6105 64.4763
60.8288 41.7275 41.4998 -44.585 -58.1019 -11.541 -8.22795 -0.481853 -24.2904 -43.0596
43.2756 44.6368 64.6945 66.83 -56.4142 -54.5416 -55.1669 0.26277 -10.3384 -13.9607
-12.641 -23.4921 -27.3422 -62.5915 44.1829 21.9605 22.2829 11.7666 12.0663 12.2911
13.2282 22.1875 44.749 10.949 12.6107 12.0292 13.361 -63.2624 -63.1897 -61.752
-61.7266 -61.8124 -61.7013 -61.6592 45.9393 66.9327 -63.1369 -62.6461 -63.4012 -63.1031
-28.7832 -34.3595 -31.7893 -11.8941 -0.519827 -4.31479 -52.2888 -51.8327 -61.5933 -10.897
1.77227 1.45401 -11.276 -62.6286 -60.2241 -53.039 -10.0072 -7.4699 -1.14621 3.69111
-7.82686 -6.48514 -18.9514 -39.5844 -43.6587 -38.4098 -54.5289 -55.7039 -55.6627 -4.68519
-17.5383 -18.7129 -5.79967 -59.0507 -54.0631 -59.175 -3.70728 -9.14224 -16.1147 -8.85849
67.8475 47.1476 -55.6549 -56.1434 -59.9467 -59.7027 -58.8024 -54.7704 -60.5583 -55.948
-58.5423 -62.0481 -62.1707 -62.2703 -29.0606 -73.2527 -92.1587 -96.8277 -97.614 -97.0669
-44.1119 -51.0518 -55.4102 -49.1923 -52.2841 -101.105 -101.86 -72.9507 -35.9014 -61.4103
-61.8445 -61.8762 -59.8471 -61.0827 -62.0681 -61.8648 -61.7618 8.08275 7.76481 10.3149
-59.076 -58.7153 -59.0175 -58.1454 -58.3547 -58.4512 -58.8933 -57.0725 -57.0628 1.58473
1.05187 -0.214589 0.555371 3.32432 3.83071 0.870459 -58.4887 -59.2321 -59.7743 5.82702
6.54544 2.50688 0.529629 3.05887 -28.9602 -35.7006 -34.5837 -28.1359 -56.5461 -57.369
-62.0668 -61.5608 -56.9732 -58.3978 -38.2493 -43.0194 -42.8326 -36.273 -48.5811 -52.5705
-52.507 -52.4555 -51.9037 124.36 132.258 147.409 147.491 -61.7203 -59.7617 -60.4832
-62.024 -62.5794 7.37393 5.34376 6.60843 8.029 -9.57387 -4.07331 -6.70076 -9.39134
-11.988 -37.9124 -36.2024 -24.5941 -26.2972 -30.9308 -37.866 -20.6673 -21.2593 31.9341
42.2052 52.9523 38.4413 23.478 21.6467 35.7834 27.6305 0.876177 1.04024 2.14846
33.6187 24.5293 16.2862 21.151 2.33864 3.47875 4.03765 3.98464 2.50395 5.12677
5.34146 3.30388 -8.3001 -6.81934 -0.990463 -9.54615 14.9378 9.31748 10.9932 -56.9298
-61.3467 -61.494 -57.1555 -80.1682 -78.964 -82.0338 -47.7041 -10.5993 -17.022 -24.716
-57.8618 -54.3318 -57.0819 -58.4888 -75.5472 -75.2203 -60.1279 -61.23 -50.9805 -51.2113
-54.357 -53.3748 2.49019 2.44045 -1.61132 5.49449 5.1242 3.96539 4.66808 5.43033
5.64924 -58.2208 -55.7855 -66.9413 -66.2704 78.7384 93.7036 85.2596 111.865 106.123
88.6519 90.0226 161.736 164.006 153.13 121.485 98.3394 104.335 97.2043 117.464
-12.351 -26.2851 -30.2818 -5.3359 -25.6102 -53.4856 -42.1176 -5.84644 94.5684 101.996
87.4439 78.9441 97.2135 88.9807 108.3 148.965 158.566 167.688 165.399 107.003
103.339 160.033 -35.3354 -8.39462 -41.0268 -31.4263 -52.6801 140.357 140.2 115.757
110.77 110.335 115.616 139.684 139.045 108.172 167.197 170.758 172.025 172.288
173.795 186.705 186.877 174.885 173.35 -31.7452 -40.0479 -31.6892 -59.7129 -52.4421
-41.7566 -40.387 -38.8329 -23.9519 5.21494 0.296356 2.68551 173.476 175.42 187.242
172.49 186.582 187.208 175.328 172.397 179.797 181.926 170.333 169.109 180.133
168.105 171.312 182.615 -55.3334 -38.5353 -36.8748 -58.3751 -58.6434 -58.7336 -36.0486
-46.913 -35.8754 -36.2637 -46.4069 -46.3828 -3.47892 -9.03323 -24.3529 -24.2721 -31.6622
-43.2095 -30.9876 -30.2055 -42.3243 -18.4106 -15.0298 -17.463 115.631 140.315 138.38
139.264 114.941 109.595 170.258 170.132 170.697 167.968 136.704 108.73 113.887
137.432 -60.681 -55.9905 -53.7014 -53.4517 -58.2214 -46.6279 89.4264 92.4904 77.5575
-11.2645 -2.77985 -2.54604 -16.1307 56.2141 58.2406 71.8174 74.9846 -58.2009 -57.1763
-57.5387 -58.1895 -59.7634 -59.9384 -60.3899 -60.5253 -61.4476 -61.3708 -61.2067 -61.6875
-126.27 -101.31 -71.2326 -91.79 -93.9908 -96.2173 -96.2028 -80.6977 -80.5499 -94.3582
-74.5455 -90.4674 -138.945 -142.014 -133.297 -98.0825 -98.903 -59.9835 -59.3921 -60.0477
-61.2325 -61.3758 -59.0463 -58.9193 9.33673 10.1989 14.2701 17.6393 14.1801 -52.1747
-50.9314 -44.8395 -45.6131 -44.4396 -44.107 -44.0815 -43.9965 13.3123 12.6489 17.2268
7.34081 7.02801 8.54574 9.0452 9.10937 7.57378 6.39341 7.21519 11.1789 14.1078
12.3023 0.267985 -1.98163 -4.02175 5.824 4.508 3.39653 5.44335 6.01071 -54.5042
-55.2496 -58.7527 -58.2613 -49.9891 -50.875 14.2279 17.0241 18.5589 -45.5236 -49.3343
-49.6873 -45.0181 -43.9901 11.0593 10.769 10.8135 9.43771 6.3807 -7.52161 -6.22039
4.77953 4.57653 4.55871 -49.8436 -49.9878 145.937 147.939 140.246 136.408 112.315
117.64 125.078 120.262 184.572 185.838 182.129 178.376 -60.9481 -60.9911 -57.1601
-56.9682 169.822 183.501 185.169 173.153 174.583 186.652 171.219 182.309 169.838
179.504 -16.2578 -18.8337 -22.9672 -27.2115 -25.8425 -22.9359 -4.54882 0.494386 -0.300967
-5.21957 -10.0127 -9.21274 -1.23572 -9.27221 -10.1522 -15.4244 -18.4678 -8.85889 -9.46662
-25.4033 -20.774 -9.60998 -0.515691 -2.98485 6.35341 -3.018 6.33845 7.48622 2.58501
2.89766 3.53752 3.38993 7.7785 5.89072 4.03325 5.93909 -18.9395 -15.2943 -26.1156
-20.5674 -58.9741 -60.6663 -61.394 -61.4251 2.76917 2.98427 5.06063 5.3612 4.42064
4.98757 -15.4804 -41.4864 -58.3619 -66.566 -54.6377 -33.1875 -61.6829 11.2605 10.6618
10.689 -4.64323 -1.50597 12.155 18.013 8.30623 25.5067 22.0699 10.8684 0.225563
6.34496 7.99837 13.2163 11.2707 5.11014 -56.8847 -45.6956 -49.8079 -10.9362 -41.3517
-22.2123 -57.6623 -80.3069 107.595 91.5494 105.402 107.301 111.942 110.842 172.949
172.074 173.326 172.662 171.325 185.973 185.974 185.202 -62.9436 -63.0779 174.688
-59.7617 -59.7561 -60.2997 -60.3967 -60.1674 -61.0944 -156.309 -143.117 -142.983 -139.583
-164.009 -142.871 -137.472 -137.811 -123.252 -118.941 -83.8792 -74.4962 -74.9761 -72.3235
-122.807 -124.646 -60.1109 -59.0982 -58.1334 -60.3173 11.8477 9.14706 11.7369 8.94352
12.1419 13.2588 13.7491 15.0251 15.7364 -57.9161 -56.6952 -58.9576 -57.0784 -54.0659
-53.7639 -53.8556 -56.6969 -6.54342 -0.977765 -1.89625 -5.28799 8.70995 8.66829 6.22399
5.66092 6.86239 8.65184 8.17789 6.15123 0.868495 7.27745 6.13808 6.01096 9.29212
11.3762 10.0832 12.8762 12.2777 -56.8501 -57.6304 -57.0612 -57.2267 -57.1534 -56.6468
-56.1148 -53.5322 -55.3744 -55.3853 -55.3171 -50.7041 -51.3819 -71.2328 -70.7082 -55.7233
-57.6693 -75.2184 -66.5494 -71.0082 -116.255 -120.281 -127.57 -76.9548 -94.6397 -102.782
-77.9185 -95.893 128.196 113.01 147.95 151.23 -59.5161 -58.9882 -60.0004 -59.9936
-57.349 144.16 168.091 146.388 -48.1575 -47.0725 -47.774 -48.8183 -48.9272 -48.9498
-48.8491 -46.2859 -9.36125 -10.9114 -13.0129 -11.9526 -14.9059 -17.3267 -19.4516 -17.2476
-18.2456 75.5315 86.4317 -53.6585 52.6276 77.4863 65.7499 74.4418 59.9746 11.778
8.42588 44.3472 35.4418 7.1681 8.01788 2.79143 4.40593 4.12838 6.46418 5.45384
5.96567 6.3955 7.00788 -52.0939 -51.5833 -51.382 -52.1411 -2.12209 -2.37365 -2.97178
1.04316 4.70506 3.98963 6.38592 5.65257 -50.3196 -50.4534 -49.9614 137.745 135.741
171.224 184.75 189.02 189.309 186.841 185.313 -61.1571 -60.9426 -61.1827 -61.0067
-57.4513 -43.9268 -44.9856 -45.4982 -44.4618 -44.8292 -46.5363 -58.429 -58.4371 -59.1533
-61.6085 -61.6101 -61.5779 -61.8566 -61.5538 -60.2406 -110.873 -107.333 -141.217 -117.554
-138.998 -126.015 -127.732 -138.503 -58.4623 -61.5707 -59.4002 -59.6293 15.7394 14.1724
13.4439 14.7908 14.3952 15.2212 -33.6549 -32.991 -27.5428 -26.9641 -39.2461 -39.5255
-44.9468 -44.6891 -51.6135 -51.6496 -43.5213 -52.7553 -52.291 -6.58808 -1.40097 -11.7307
-0.778799 0.576861 7.30267 7.03731 7.43334 3.3526 9.49597 6.69355 7.83495 9.19101
9.8842 9.75864 9.85087 11.4684 11.2387 0.693209 11.2336 13.1183 14.249 0.979265
0.202738 -0.127488 0.926072 -60.8692 -60.1646 -53.7472 -58.8747 -43.85 -43.5656 -38.6158
-43.9357 -45.1734 -50.1355 -51.8186 -50.1687 -49.8316 -50.1415 -45.5653 -52.6548 -45.9963
1.32293 -48.2967 -49.1539 140.315 131.014 128.835 128.515 128.9 113.204 105.691
188.606 188.116 187.079 -53.4914 -53.9441 2.94114 3.53764 4.46668 -25.4555 -26.5252
186.219 187.021 180.569 183.534 182.132 181.763 -31.9649 -28.0979 1.12767 -3.26657
-1.6744 1.15946 -20.0253 -8.7372 -5.8793 -8.53383 -15.0471 -4.7151 80.6668 56.5174
61.2703 21.1453 21.6242 68.1487 110.84 10.6112 7.23793 -3.51046 -3.77071 6.46216
7.17282 7.4033 5.92167 6.24307 25.3849 17.5262 1.59756 21.1528 -3.80156 2.48117
7.52466 7.42535 68.2975 110.448 -56.4946 -58.5789 19.448 89.8371 107.886 101.642
94.1699 109.479 110.343 127.523 135.284 144.017 -61.2087 79.6148 71.3905 48.0296
15.8345 21.4651 19.6311 -69.0737 -60.1745 -60.1691 -60.1707 -56.9638 -56.9728 -61.4617
-56.9414 -61.1218 -61.9346 25.1424 -7.64399 5.46571 10.4161 10.9064 -3.71718 -3.84599
-5.15164 -57.5944 -55.3861 -1.61784 2.23308 2.44196 -60.3309 -59.6529 -58.829 8.36294
8.02335 3.30351 -59.2516 43.0056 47.2881 -71.1983 -63.2546 14.4832 12.2214 7.92037
6.15515 4.28494 7.43377 6.07788 -54.1423 -54.3075 -52.1438 -51.7924 -58.1159 -52.1117
-51.1834 -56.5136 -56.9348 -56.9804 -56.302 -57.5375 -56.9663 -56.9268 -56.5613 3.08591
-51.1777 -56.525 -55.8479 100.18 128.604 144.31 154.722 167.831 162.56 160.364
148.412 188.195 -56.9536 -58.8317 -53.9862 -4.29842 -7.2206 0.261851 -49.2424 -49.0886
-49.6151 -50.018 -54.0067 -45.8716 -47.6736 -46.1365 -45.3848 -46.3199 30.8437 22.5546
-105.588 -113.381 -113.11 -113.61 -113.889 -75.3263 -98.4287 -75.3282 15.079 18.4406
-11.5712 11.762 10.9024 -6.99864 -8.94952 3.27674 0.798315 -0.435644 -1.7129 -3.63318
-4.70037 -2.93513 2.42555 2.14822 -2.75708 0.635186 2.31176 0.0985479 -1.61985 15.0782
19.2908 -50.1337 4.87977 11.1878 7.67722 14.666 6.03729 9.18007 12.152 13.7806
2.62298 2.5875 5.45043 4.94176 -4.52952 -6.71735 -9.30645 -9.20064 3.20543 0.369814
3.50588 9.03869 15.9022 17.3361 7.82775 4.63623 1.65192 1.42395 6.48707 10.2596
10.9193 11.6908 10.7263 4.68038 -5.20782 4.54504 -4.39428 1.62364 -5.21129 1.04223
11.0253 8.04151 12.5838 6.08563 9.57168 11.7312 10.9127 10.5758 7.1996 8.55298
9.15819 9.46225 6.98545 6.99506 7.00233 5.25079 -8.42587 -12.6272 -10.2624 5.02529
4.80119 7.39492 4.70375 -12.2184 -13.7756 -0.112158 6.40365 4.88825 -3.18799 4.64826
-143.179 -143.399 -143.425 11.8646 -58.5709 -56.546 -56.5084 4.56253 8.87595 5.23462
8.0049 12.1021 -58.7233 -58.6503 -57.3826 -56.4982 -59.3781 -58.5204 -58.6413 -66.8504
-111.05 -113.202 -108.727 -113.662 -48.4191 -49.1454 -45.9053 -45.5147 -45.9295 -45.4801
-15.3235 -15.3754 -17.5103 -51.9292 -51.6889 -51.3171 3.7583 -0.223782 3.79345 3.51649
-51.0097 -51.5553 -51.8678 140.996 150.506 -60.7701 -53.4764 15.1633 16.0488 10.7312
6.59262 10.4289 16.8 4.23844 3.4602 4.74823 3.83464 -52.8029 -59.6175 -59.3379
-57.5565 7.03809 15.6167 10.7601 3.25336 3.4705 9.93462 8.60077 9.15235 8.45109
9.94876 12.3126 9.75373 5.1869 7.96433 7.61209 -55.9074 -50.0563 -47.3037 92.6904
82.236 85.76 69.0912 74.8297 -5.58339 -3.53872 -0.223224 -2.19325 7.63053 8.19502
7.83315 8.1284 8.02939 7.45613 6.68486 117.862 107.664 95.6673 -75.2552 -59.1907
-57.9288 -56.9435 -56.6433 -56.4744 -56.3422 163.61 139.969 162.046 162.179 10.7456
8.24474 13.2552 14.0836 7.38372 8.88867 7.67673 6.89281 6.23397 2.31565 -3.54574
4.7048 5.34364 5.84384 3.627 6.53486 14.9791 8.87148 -16.59 16.1106 12.8609
6.08371 9.31775 16.8137 9.34352 -17.088 -17.9659 -15.8449 -5.37635 -7.8262 -16.991
6.75369 4.25554 -18.7747 -20.0619 4.81001 2.71627 -3.6457 -5.40126 -56.8728 -44.1513
15.5101 0.913541 -0.963372 -1.31108 5.46398 5.05607 6.00629 5.5 5.4369 4.91537
-1.75355 5.26012 6.28153 -2.45668 4.80902 3.58775 6.49322 5.93192 5.39766 107.806
88.7021 123.193 125.05 4.07319 3.70336 1.71071 -57.1543 3.98482 5.52072 5.21827
-10.7959 -13.8768 -0.927978 5.44241 6.19229 5.08583 8.67929 4.38543 7.19303 2.50591
34.2505 -52.2652 -57.2081 -56.755 -56.7074 -56.7861 -4.38899 -6.06634 -16.0663 -15.9241
-15.946 -5.11532 7.22408 1.54464 4.32296 5.35537 0.537531 0.543872 -1.96267 -2.70245
-14.711 -8.08771 -6.9251 -14.8633 -7.03691 -15.8432 4.04243 -14.1215 -15.882 -4.68751
0.00410471 5.62648 5.57863 5.06085 8.52669 -1.84813 5.91619 -4.05953 -2.22003 4.04164
-2.68092 6.73898 4.18618 -11.1053 8.65097 -1.76662 5.62503 0.447878 0.908637 4.45001
4.72465 3.93937 4.63563 1.3694 7.39517 8.4746 4.37682 5.36553 -0.319109 2.43292
10.9349 5.26585 -0.866136 -1.38213 1.99066 172.963 176.843 176.372 181.221 169.407
168.42 172.987 179.859 180.867 67.162 71.4922 52.3002 -59.6405 -39.4292 -36.0445
-33.8014 -27.0161 -43.3428 -52.8871 -52.2202 -57.2125 -47.1779 100.14 155.098 162.594
155.745 147.785 -61.5282 -61.2669 -61.1246 -61.2599 -59.8798 -61.2791 -58.4503 -58.7407
-58.584 7.70182 3.41699 171.399 -13.9277 186.051 190.255 189.429 -52.977 -47.8379
182.92 186.07 186.198 -15.7839 -51.5067 86.3055 -57.0399 -57.1862 -57.5282 -57.4363
-50.1397 189.35 1.48813 189.594 185.628 189.177 7.94904 -62.2138 109.454 108.78
-59.1992 3.89955 -54.97 -57.2371 -55.1743 -143.853 139.696 -56.9204 158.748 -55.3947
-113.954 -113.886 74.6018 6.78937 1.54297 168.465 165.086 -14.437 139.95 191.139
190.052 185.546 189.402 190.848 189.845 172.907 191.204 186.847 190.003 191.235
0.635275 0.630739 0.656414 0.726149 0.939832 1.63549 2.20464 -4.10248 1.28157 0.020419
-4.15968 -5.95302 0.418394 0.0987759 0.00704714 0.00907891 0.00684363 -0.000533574 -0.00302482 -0.001929
-0.00119209 -0.00169209 -0.0011781 -5.86242e-05 -55.3742 -53.1753 -125.404 -125.945 -46.8503 -47.5525
-48.805 -46.6581 -47.396 -48.6845 -49.7087 -45.9231 -96.9337 -76.0864 -48.2207 -45.5806
-75.5422 -48.104 -51.8522 -52.5368 -51.0593 -96.7424 -107.18 -121.574 -113.2 -113.034

U 3 2021 float
20.0104 -0.0512732 -0.214823 20.0479 -0.0356003 -0.0734987 19.9308 -0.00970097 -0.0969365 19.9405 -0.062496
-0.606687 20.0189 -0.0658292 0.0415654 20.0192 -0.0657179 0.0415868 20.1713 -0.0864796 0.0592827
20.2368 -0.0954224 0.0674122 20.2827 -0.101029 0.154198 20.292 -0.1256 0.272645 20.2111
-0.126794 0.216239 19.9599 -0.0524943 0.0219434 19.9982 -0.0604333 0.0200066 20.0052 -0.0585746
0.00859692 19.8679 -0.0279238 0.0205685 19.8668 -0.0243151 0.0168951 20.0077 -0.0580648 0.00364581
19.8697 -0.0224656 0.012529 20.0064 -0.057021 0.00241315 19.869 -0.0205128 0.0120044 20.0049
-0.0559738 0.00192712 19.8679 -0.0187057 0.0120006 20.0036 -0.0549433 0.00161864 19.867 -0.0171027
0.0119673 20.0023 -0.0539891 0.00138252 19.8662 -0.0156917 0.0118769 20.0009 -0.0531032 0.00119397
19.8653 -0.0144309 0.0117681 19.9994 -0.0522647 0.00101537 19.8644 -0.0133273 0.0115707 19.998
-0.0514608 0.00089952 19.8635 -0.012302 0.0114556 19.9962 -0.050638 0.000737495 19.8626 -0.0112805
0.0111684 19.8622 -0.0108045 0.0108495 19.9959 -0.0503636 0.000596949 19.9996 -0.000400379 3.0791e-05
20 0 0 20 0 0 19.9996 -0.000399436 7.70114e-05 19.9983
-0.000929494 9.35974e-05 19.9983 -0.000939291 0.000276234 19.9942 -0.00183156 0.000364608 19.9941 -0.00178692
0.000995206 19.9787 -0.00337504 0.000322472 19.9794 -0.0037051 0.00355265 19.947 -0.00732939 -0.00917751
19.9365 -0.00781112 -0.00855131 19.9392 0.000199304 -0.0146422 19.9291 -0.00790861 -0.0298582 19.9071
0.00264648 -0.0618848 20.2387 -0.0809232 0.00342017 20.0525 -0.0336817 -0.0561896 20.2409 -0.080136
0.00704846 19.9372 -0.0975228 0.0353347 20.0261 -0.127635 0.0867571 20.2365 -0.0953869 0.0668744
19.8696 -0.0337613 0.0265108 19.2997 0.139413 0.0177313 19.3328 0.136198 0.0180508 19.3628
0.129562 0.0175767 19.3862 0.124545 0.0181405 19.4066 0.120034 0.0186102 19.4255 0.115742
0.0187558 19.4431 0.111604 0.0187296 19.4595 0.107667 0.018634 19.4752 0.103867 0.0184318
19.4891 0.100317 0.0182438 19.5054 0.0967164 0.0178994 19.5157 0.0947547 0.017596 20
0 0 19.9996 -0.000399215 0.000135085 19.9985 -0.000936398 0.00048627 19.9945 -0.00178455
0.00171275 19.9799 -0.00382769 0.00599581 19.9192 -0.0102308 0.0100049 19.9192 -0.00942082 4.46655e-05
19.8511 -0.0197206 -0.097179 19.7938 -0.0235575 -0.0702767 19.963 -0.0591191 -1.02244 20.4476
-0.0813426 -0.919214 20.2249 -0.0650377 -0.502565 19.9354 -0.0625551 -0.636162 20.3091 -0.174222
0.468972 20.3094 -0.175124 0.472558 20.1039 -0.264846 0.603506 19.9935 -0.252038 0.316451