# vtk DataFile Version 2.0
tracks
ASCII
DATASET POLYDATA
POINTS 2615 float
-1.001 -0.05 0.0011 -0.900789 -0.0500224 0.00109731 -0.800577 -0.0500448 0.00109463 -0.700366 -0.0500671
0.00109195 -0.600155 -0.0500894 0.00108928 -0.499943 -0.0501116 0.00108661 -0.424945 -0.0501161 0.00107898
-0.349947 -0.0501583 0.00106914 -0.274949 -0.0502 0.00105939 -0.19995 -0.0502414 0.00104973 -0.124952
-0.0502824 0.00104015 -0.0499538 -0.0502929 0.0010406 0.0250446 -0.0503029 0.00104962 0.100043 -0.0503129
0.00105871 0.175041 -0.050323 0.00106789 0.25004 -0.0503333 0.00107715 0.400037 -0.0503274 0.00109374
0.550035 -0.0503259 0.00110863 0.700032 -0.0503245 0.00112372 0.85003 -0.050323 0.00113902 1.00003
-0.0503215 0.00115452 1.15003 -0.0503334 0.00116204 1.30002 -0.050339 0.00116689 1.45002 -0.0503447
0.00117175 1.60002 -0.0503504 0.00117664 1.75002 -0.0503561 0.00118155 1.90002 -0.0503656 0.00118469
2.05002 -0.050372 0.00118693 2.20001 -0.0503785 0.00118917 2.35001 -0.050385 0.00119141 2.50001
-0.0503915 0.00119366 2.65001 -0.0504003 0.00119496 2.80001 -0.0504084 0.00119588 2.95001 -0.0504165
0.0011968 3.10001 -0.0504247 0.00119773 3.25001 -0.0504328 0.00119865 3.40001 -0.0504415 0.0011992
3.55001 -0.0504504 0.00119998 3.70001 -0.0504593 0.00120075 3.85001 -0.0504681 0.00120153 4.00001
-0.050477 0.00120231 4.15 -0.0504856 0.00120267 4.3 -0.0504953 0.0012035 4.45 -0.0505049
0.00120432 4.6 -0.0505146 0.00120515 4.75 -0.0505243 0.00120597 4.9 -0.0505328 0.00120626
5.05 -0.0505429 0.00120719 5.2 -0.050553 0.00120812 5.35 -0.0505632 0.00120904 5.5
-0.0505733 0.00120997 5.65 -0.0505817 0.00121022 5.8 -0.0505921 0.00121126 5.95 -0.0506025
0.00121231 6.1 -0.050613 0.00121336 6.25 -0.0506234 0.0012144 6.4 -0.0506316 0.00121461
6.55 -0.0506422 0.00121579 6.7 -0.0506528 0.00121696 6.85 -0.0506635 0.00121814 7
-0.0506741 0.00121932 7.15 -0.0506822 0.0012195 7.3 -0.0506929 0.00122077 7.45 -0.0507037
0.00122205 7.6 -0.0507144 0.00122333 7.75 -0.0507252 0.00122461 7.9 -0.0507332 0.00122477
8.05 -0.050744 0.00122613 8.2 -0.0507549 0.00122749 8.35 -0.0507658 0.00122885 8.5
-0.0507766 0.00123022 8.65 -0.0507846 0.00123036 8.8 -0.0507954 0.00123179 8.95 -0.0508063
0.00123323 9.1 -0.0508172 0.00123466 9.25 -0.0508282 0.0012361 9.4 -0.050836 0.00123622
9.55 -0.0508965 0.00123824 9.7 -0.0510123 0.00124086 9.85 -0.0511833 0.00124408 10
-0.0514095 0.0012479 -1.001 -0.05 0.0537316 -0.900807 -0.0501182 0.0535752 -0.800614 -0.0502374
0.0533912 -0.700422 -0.0503826 0.0531743 -0.600229 -0.0505619 0.0529229 -0.500035 -0.050775 0.0526371
-0.425004 -0.0510376 0.0524206 -0.349973 -0.0513915 0.0521415 -0.274943 -0.0517953 0.0518847 -0.199913
-0.0522353 0.051671 -0.124879 -0.0526613 0.0515398 -0.0498862 -0.0529522 0.0515865 0.0251066 -0.0531968
0.0517635 0.100099 -0.0534368 0.0520098 0.175092 -0.0536865 0.0523046 0.250087 -0.053931 0.0526339
0.400077 -0.0543634 0.0532897 0.550067 -0.0547919 0.0538195 0.700057 -0.0551751 0.0543001 0.850048
-0.0555131 0.0547311 1.00003 -0.055815 0.055112 1.15003 -0.0562304 0.0554086 1.30003 -0.0566087
0.0556855 1.45002 -0.0569836 0.0559272 1.60002 -0.057355 0.0561337 1.73035 -0.057675 0.0562824
1.73429 -0.0576852 0.0562863 1.73822 -0.0576953 0.0562902 1.74215 -0.0577055 0.056294 1.74608
-0.0577157 0.0562979 1.75002 -0.0577259 0.0563017 1.90002 -0.0581164 0.0564472 2.05002 -0.0585022
0.0565751 2.20001 -0.0588837 0.0566853 2.35001 -0.0592609 0.0567778 2.50001 -0.0596337 0.0568526
2.65001 -0.0600132 0.0569162 2.80001 -0.0603902 0.0569731 2.95001 -0.0607659 0.0570225 3.10001
-0.0611404 0.0570644 3.25001 -0.0615137 0.0570988 3.40001 -0.0618899 0.0571283 3.55001 -0.0622649
0.0571569 3.70001 -0.0626381 0.0571838 3.85001 -0.0630093 0.0572088 4 -0.0633787 0.057232
4.15 -0.0637481 0.0572532 4.3 -0.0641185 0.0572749 4.45 -0.064487 0.0572959 4.6
-0.0648536 0.0573163 4.75 -0.0652184 0.0573359 4.9 -0.0655808 0.0573539 5.05 -0.0659455
0.0573729 5.2 -0.0663083 0.0573915 5.35 -0.0666693 0.0574096 5.5 -0.0670284 0.0574274
5.65 -0.0673835 0.0574433 5.8 -0.0677416 0.0574607 5.95 -0.0680981 0.0574777 6.1
-0.0684528 0.0574945 6.25 -0.0688058 0.0575109 6.4 -0.0691538 0.0575253 6.55 -0.0695054
0.0575416 6.7 -0.0698554 0.0575575 6.85 -0.0702038 0.0575732 7 -0.0705506 0.0575887
7.15 -0.0708918 0.057602 7.3 -0.071237 0.0576173 7.45 -0.0715806 0.0576324 7.6
-0.0719228 0.0576472 7.75 -0.0722634 0.0576618 7.9 -0.0725982 0.057674 8.05 -0.0729371
0.0576885 8.2 -0.0732746 0.0577028 8.35 -0.0736106 0.057717 8.5 -0.0739452 0.057731
8.65 -0.0742737 0.0577426 8.8 -0.0746064 0.0577565 8.95 -0.0749376 0.0577701 9.1
-0.0752674 0.0577835 9.25 -0.0755956 0.0577967 9.4 -0.0759177 0.0578074 9.55 -0.0762447
0.0578205 9.7 -0.076571 0.0578333 9.85 -0.0768967 0.0578459 10 -0.0772217 0.0578584
-1.001 -0.05 0.106363 -0.900818 -0.0500905 0.106136 -0.800636 -0.0501796 0.10586 -0.700455
-0.0502979 0.105539 -0.600274 -0.0504903 0.104998 -0.50009 -0.0507564 0.104239 -0.424995 -0.0510595
0.103661 -0.349901 -0.0514265 0.103068 -0.274806 -0.0518015 0.102546 -0.19971 -0.0521215 0.102133
-0.124605 -0.0524883 0.10205 -0.0496032 -0.0527628 0.10218 0.0253987 -0.052982 0.102429 0.1004
-0.0531875 0.102759 0.175401 -0.0534132 0.103173 0.250411 -0.053659 0.103673 0.400347 -0.0541141
0.104706 0.550283 -0.0545663 0.105606 0.70022 -0.0549756 0.106416 0.850158 -0.0553505 0.107056
1.00009 -0.0556906 0.107525 1.15007 -0.0561739 0.107809 1.30006 -0.0564971 0.108124 1.45005
-0.0567645 0.108417 1.60004 -0.0570249 0.108677 1.75002 -0.0572781 0.108904 1.90002 -0.0576148
0.109064 2.05002 -0.0578781 0.109234 2.20001 -0.0581347 0.109389 2.35001 -0.0583884 0.109526
2.50001 -0.0586394 0.109646 2.65001 -0.0589557 0.10973 2.80001 -0.0592211 0.109812 2.95001
-0.0594848 0.109888 3.10001 -0.0597473 0.109956 3.25001 -0.0600087 0.110017 3.40001 -0.0603213
0.110067 3.55001 -0.0605888 0.110116 3.70001 -0.060854 0.110164 3.85001 -0.0611171 0.110211
4 -0.0613782 0.110255 4.15 -0.0616829 0.110297 4.3 -0.061949 0.110336 4.45
-0.0622128 0.110374 4.6 -0.0624747 0.110412 4.75 -0.0627345 0.110449 4.9 -0.063031
0.110488 5.05 -0.0632937 0.110521 5.2 -0.0635542 0.110554 5.35 -0.0638128 0.110586
5.5 -0.0640695 0.110618 5.65 -0.0643575 0.110656 5.8 -0.0646158 0.110685 5.95
-0.0648721 0.110713 6.1 -0.0651266 0.110742 6.25 -0.0653793 0.110769 6.4 -0.0656593
0.110806 6.55 -0.065913 0.110832 6.7 -0.0661649 0.110857 6.85 -0.0664151 0.110882
7 -0.0666637 0.110907 7.15 -0.0669362 0.110942 7.3 -0.0671852 0.110965 7.45
-0.0674326 0.110988 7.6 -0.0676784 0.111011 7.75 -0.0679227 0.111033 7.9 -0.0681881
0.111067 8.05 -0.0684327 0.111088 8.2 -0.0686757 0.111109 8.35 -0.0689172 0.111129
8.5 -0.0691572 0.111149 8.65 -0.0694158 0.111183 8.8 -0.0696555 0.111203 8.95
-0.0698937 0.111222 9.1 -0.0701303 0.11124 9.25 -0.0703655 0.111259 9.4 -0.0706171
0.111291 9.55 -0.0708527 0.111309 9.7 -0.0710874 0.111326 9.85 -0.0713215 0.111342
10 -0.0715549 0.111359 -1.001 -0.05 0.158995 -0.900796 -0.0501005 0.158767 -0.800593
-0.0502191 0.158417 -0.700392 -0.050399 0.157677 -0.600196 -0.0506537 0.156462 -0.499992 -0.050975
0.154622 -0.424721 -0.0516011 0.153026 -0.349437 -0.0520915 0.152122 -0.274149 -0.0525156 0.151584
-0.19886 -0.052941 0.151319 -0.123702 -0.0532898 0.151401 -0.0487819 -0.0534438 0.151591 0.0261363
-0.0535473 0.1521 0.101053 -0.053706 0.152837 0.175968 -0.0538919 0.153667 0.250946 -0.0540621
0.154524 0.400785 -0.0543002 0.155994 0.550626 -0.0548539 0.157216 0.70047 -0.0553739 0.158001
0.850314 -0.0558139 0.158628 1.00014 -0.0562191 0.159085 1.15012 -0.0567683 0.159357 1.30009
-0.0571569 0.159659 1.45007 -0.0574454 0.159949 1.60005 -0.0576502 0.160223 1.75002 -0.0578481
0.160464 1.90002 -0.0581305 0.160637 2.05002 -0.058339 0.160822 2.20002 -0.0585337 0.160992
2.35001 -0.0587184 0.161146 2.50001 -0.0589005 0.161283 2.65001 -0.0591484 0.161383 2.80001
-0.0593452 0.161483 2.95001 -0.0595391 0.161576 3.10001 -0.0597307 0.161662 3.25001 -0.0599213
0.161741 3.40001 -0.0601631 0.161808 3.55001 -0.06036 0.161876 3.70001 -0.0605537 0.161943
3.85001 -0.0607445 0.162008 4 -0.0609334 0.162072 4.15 -0.0611656 0.162133 4.3
-0.0613597 0.162191 4.45 -0.0615507 0.16225 4.6 -0.061739 0.162307 4.75 -0.0619254
0.162364 4.9 -0.0621481 0.162424 5.05 -0.0623374 0.162478 5.2 -0.062524 0.162531
5.35 -0.0627082 0.162584 5.5 -0.0628905 0.162637 5.65 -0.0631037 0.162696 5.8
-0.0632876 0.162746 5.95 -0.0634692 0.162795 6.1 -0.0636486 0.162845 6.25 -0.0638262
0.162894 6.4 -0.0640305 0.162952 6.55 -0.0642091 0.162999 6.7 -0.0643856 0.163046
6.85 -0.06456 0.163092 7 -0.0647329 0.163139 7.15 -0.064929 0.163196 7.3
-0.0651023 0.16324 7.45 -0.0652738 0.163285 7.6 -0.0654434 0.163329 7.75 -0.0656116
0.163373 7.9 -0.0658001 0.163428 8.05 -0.0659686 0.163471 8.2 -0.0661352 0.163513
8.35 -0.0663002 0.163555 8.5 -0.0664638 0.163598 8.65 -0.0666452 0.163653 8.8
-0.0668084 0.163694 8.95 -0.0669699 0.163734 9.1 -0.0671297 0.163775 9.25 -0.0672881
0.163815 9.4 -0.0674621 0.163868 9.55 -0.0676208 0.163907 9.7 -0.0677786 0.163946
9.85 -0.0679355 0.163984 10 -0.0680918 0.164022 -1.001 -0.05 0.211626 -0.947578
-0.0500872 0.211467 -0.894156 -0.0501796 0.211273 -0.840734 -0.0502772 0.211045 -0.787312 -0.0504195
0.210751 -0.723971 -0.0506732 0.210268 -0.679163 -0.0509587 0.209617 -0.634359 -0.0513026 0.20874
-0.589557 -0.0516514 0.207726 -0.544759 -0.0520061 0.206575 -0.499928 -0.0523682 0.205285 -0.46942
-0.0526713 0.204234 -0.438914 -0.0529843 0.203122 -0.408403 -0.0532818 0.202139 -0.377888 -0.0535647
0.20128 -0.328481 -0.0540086 0.200029 -0.287746 -0.054361 0.199148 -0.247006 -0.0547152 0.19849
-0.206263 -0.0550747 0.198144 -0.165518 -0.0553969 0.198084 -0.124889 -0.0556434 0.198288 -0.0496154
-0.0559716 0.199065 0.0256562 -0.0561295 0.200071 0.100923 -0.0562551 0.201403 0.176188 -0.0564101
0.202811 0.225656 -0.0565053 0.203596 0.23082 -0.0565142 0.203671 0.235984 -0.0565229 0.203744
0.241148 -0.0565316 0.203817 0.246312 -0.0565402 0.203889 0.251477 -0.0565487 0.20396 0.326235
-0.0566693 0.204976 0.400995 -0.0567922 0.205862 0.475756 -0.0569168 0.206616 0.550519 -0.0570715
[...]
POINT_DATA 2615
FIELD attributes 4
age 1 2615 float
0 0.00501117 0.0100223 0.0150335 0.0200447 0.0250558 0.0288054 0.032553 0.0363006 0.0400482 0.0437959
0.0475443 0.0512898 0.0550354 0.0587809 0.0625263 0.070023 0.077522 0.085021 0.0925199 0.100019
0.107519 0.115019 0.122518 0.130018 0.137518 0.145018 0.152518 0.160018 0.167518 0.175017
0.182517 0.190017 0.197517 0.205016 0.212516 0.220016 0.227516 0.235015 0.242515 0.250015
0.257515 0.265014 0.272514 0.280014 0.287513 0.295013 0.302513 0.310013 0.317513 0.325012
0.332512 0.340012 0.347512 0.355011 0.362511 0.370011 0.377511 0.385011 0.39251 0.40001
0.40751 0.41501 0.422509 0.430009 0.437509 0.445009 0.452509 0.460008 0.467508 0.475008
0.482508 0.490008 0.497507 0.505007 0.512507 0.520007 0.527506 0.535004 0.542502 0.549998
0 0.00502561 0.0100524 0.0150732 0.0200856 0.0250897 0.0288279 0.0325601 0.0362855 0.040004
0.0437163 0.0474214 0.0511197 0.0548162 0.0585126 0.0622109 0.0696202 0.0770553 0.0845053 0.0919703
0.09945 0.106943 0.114438 0.121934 0.129431 0.135947 0.136143 0.13634 0.136537 0.136733
0.13693 0.14443 0.151929 0.159428 0.166927 0.174424 0.181922 0.189419 0.196916 0.204412
0.211909 0.219405 0.226902 0.234398 0.241895 0.249391 0.256888 0.264385 0.271882 0.279379
0.286876 0.294374 0.301871 0.309368 0.316866 0.324363 0.331861 0.339359 0.346857 0.354355
0.361853 0.369351 0.376849 0.384347 0.391846 0.399344 0.406843 0.414341 0.42184 0.429339
0.436838 0.444337 0.451836 0.459335 0.466834 0.474334 0.481833 0.489333 0.496832 0.504332
0.511832 0.519332 0.526832 0.534332 0.541832 0.549332 0 0.00502766 0.0100571 0.0150806
0.0200973 0.0251074 0.0288536 0.0325925 0.0363221 0.0400468 0.0437619 0.0474655 0.0511634 0.0548603
0.0585563 0.062252 0.0696488 0.0770732 0.084516 0.0919808 0.0994673 0.106969 0.114472 0.121978
0.129486 0.136994 0.144507 0.152015 0.159522 0.167029 0.174534 0.182045 0.18955 0.197054
0.204558 0.212062 0.219572 0.227076 0.234579 0.242083 0.249587 0.257098 0.264602 0.272106
0.27961 0.287114 0.294625 0.30213 0.309634 0.317139 0.324643 0.332155 0.339659 0.347164
0.354669 0.362174 0.369685 0.37719 0.384696 0.392201 0.399706 0.407218 0.414723 0.422229
0.429734 0.43724 0.444753 0.452258 0.459764 0.46727 0.474776 0.482289 0.489795 0.497301
0.504807 0.512314 0.519827 0.527334 0.53484 0.542347 0.549853 0 0.00502979 0.0100655
0.0150983 0.0201249 0.0251465 0.028911 0.0326638 0.0364046 0.0401348 0.0438483 0.047542 0.0512307
0.0549184 0.0586055 0.0622963 0.0696823 0.0771051 0.0845585 0.0920273 0.0995172 0.107027 0.114538
0.122054 0.129574 0.137095 0.144621 0.152142 0.159663 0.167183 0.174703 0.182227 0.189746
0.197264 0.204782 0.212299 0.219823 0.227341 0.234858 0.242376 0.249894 0.257418 0.264936
0.272454 0.279972 0.28749 0.295015 0.302533 0.310052 0.31757 0.325088 0.332614 0.340132
0.347651 0.35517 0.362688 0.370214 0.377733 0.385252 0.392771 0.40029 0.407816 0.415335
0.422855 0.430374 0.437894 0.44542 0.45294 0.46046 0.467979 0.475499 0.483026 0.490546
0.498066 0.505587 0.513107 0.520634 0.528154 0.535675 0.543196 0.550716 0 0.00268528
0.00537224 0.00806086 0.0107488 0.0139335 0.0161849 0.0184358 0.0206859 0.0229351 0.0251851 0.0267139
0.0282407 0.0297644 0.0312852 0.0337418 0.0357592 0.037771 0.0397774 0.0417783 0.043768 0.0474453
0.0511243 0.054805 0.0584924 0.0609232 0.0611774 0.0614316 0.0616858 0.0619401 0.0621944 0.0658768
0.0695693 0.073272 0.076985 0.080708 0.081377 0.082046 0.0827151 0.0833842 0.0840338 0.0871149
0.0901983 0.093284 0.0963719 0.0994615 0.106979 0.114498 0.122022 0.12955 0.137083 0.144622
0.152155 0.159688 0.167221 0.174754 0.182292 0.189824 0.197355 0.204886 0.212417 0.219955
0.227485 0.235016 0.242547 0.250078 0.257616 0.265147 0.272678 0.28021 0.287741 0.295279
0.302811 0.310343 0.317874 0.325406 0.332945 0.340477 0.348009 0.355541 0.363073 0.370612
0.378144 0.385677 0.393209 0.400742 0.408281 0.415814 0.423347 0.430879 0.438412 0.445952
0.453485 0.461018 0.468552 0.476085 0.483625 0.491159 0.498692 0.506226 0.513759 0.5213
0.528834 0.536368 0.543902 0.551436 0 0.0012644 0.00252917 0.00379462 0.00506085 0.0063279
0.0101152 0.0139106 0.0177175 0.0215304 0.0253256 0.0269015 0.0284672 0.0300262 0.0315779 0.033019
0.0333397 0.03366 0.0339801 0.0342999 0.0346197 0.0364466 0.0382663 0.0400771 0.0418826 0.043679
0.045478 0.0472824 0.0490989 0.0509204 0.0525188 0.0525644 0.05261 0.0526556 0.0527012 0.0527468
0.0545768 0.0564103 0.0582472 0.0600875 0.061931 0.0656275 0.0693412 0.0730731 0.0768149 0.0805642
0.0843256 0.0880867 0.0918488 0.0956135 0.0993801 0.106912 0.114445 0.121982 0.129523 0.137068
0.144631 0.152178 0.159725 0.167273 0.17482 0.182377 0.189923 0.19747 0.205015 0.212561
0.220116 0.227661 0.235207 0.242752 0.250298 0.257853 0.265399 0.272945 0.28049 0.288036
0.295592 0.303138 0.310684 0.31823 0.325776 0.333333 0.340879 0.348425 0.355972 0.363518
0.371075 0.378621 0.386168 0.393714 0.401261 0.408818 0.416365 0.423912 0.431459 0.439006
0.446563 0.45411 0.461658 0.469205 0.476752 0.48431 0.491857 0.499405 0.506953 0.5145
0.522058 0.529606 0.537153 0.544701 0.552249 0 0.0012654 0.00253131 0.00379773 0.00506467
0.00633213 0.00822641 0.010123 0.0120221 0.013924 0.015828 0.0177452 0.0196672 0.0215901 0.0235159
0.0254538 0.0264243 0.0273922 0.0283557 0.0293147 0.0302734 0.0307422 0.0312095 0.0316747 0.0321379
0.0326512 0.0331112 0.0335691 0.034025 0.0344788 0.03493 0.0358391 0.036745 0.0376467 0.0385442
0.0394329 0.0403208 0.0412071 0.0420928 0.0429782 0.0438647 0.0449739 0.0460877 0.0472063 0.0483297
0.0485154 0.0493822 0.0502509 0.0511217 0.0519946 0.0528685 0.0546969 0.0565397 0.058394 0.0602551
0.0621161 0.0639873 0.0658596 0.0677337 0.0696105 0.0714913 0.0733788 0.0752615 0.0771399 0.0790201
0.0809053 0.0843612 0.0878211 0.0912828 0.094746 0.0975936 0.0980499 0.0985063 0.0989627 0.0994192
0.0998756 0.107455 0.115037 0.122627 0.130224 0.137828 0.145461 0.153066 0.160667 0.168267
0.175867 0.183488 0.191086 0.198682 0.206278 0.213873 0.22149 0.229085 0.236679 0.244273
0.251868 0.259482 0.267077 0.274671 0.282264 0.289859 0.297471 0.305066 0.312659 0.320252
0.327846 0.335457 0.343051 0.350644 0.358237 0.365831 0.37344 0.381034 0.388626 0.396219
0.403812 0.41142 0.419013 0.426606 0.434198 0.441791 0.449398 0.45699 0.464582 0.472175
0.479767 0.487372 0.494965 0.502556 0.510148 0.51774 0.525343 0.532935 0.540527 0.548118
0.55571 0 0.00126279 0.00252625 0.00379074 0.0050564 0.00632324 0.00823322 0.0101452 0.0120609
0.01398 0.0159043 0.0178215 0.0197514 0.0216941 0.0236494 0.0256265 0.0266257 0.0276255 0.0286254
0.0296241 0.0306344 0.0308726 0.0311108 0.0313486 0.0315846 0.0317701 0.0325272 0.0332716 0.0340027
0.0347197 0.0354282 0.0358739 0.0363179 0.0367603 0.0372012 0.0376362 0.0380724 0.0385056 0.0389364
0.0393666 0.0397947 0.0402256 0.0406566 0.0410876 0.0415193 0.0419538 0.0423883 0.0428223 0.0432571
0.0436927 0.0441306 0.045006 0.0458923 0.0467896 0.0476954 0.0486184 0.0491875 0.0497566 0.0503271
0.0508995 0.0515756 0.0519183 0.0522615 0.0526051 0.0529492 0.0532942 0.0542477 0.0551971 0.0561505
0.0571104 0.0580705 0.0590381 0.0600059 0.0609746 0.0619451 0.0629167 0.0648767 0.0668326 0.0687838
0.0707387 0.0726744 0.0745991 0.0765362 0.0784857 0.0804419 0.0824029 0.0863461 0.0902876 0.0942084
0.0981087 0.102015 0.109828 0.117611 0.125335 0.132999 0.14067 0.148373 0.156054 0.163729
0.171401 0.17907 0.186756 0.194423 0.202089 0.209752 0.217416 0.225094 0.232756 0.240417
0.248077 0.255737 0.26341 0.27107 0.278728 0.286385 0.294042 0.301711 0.309368 0.317024
0.324679 0.332334 0.339999 0.347653 0.355307 0.36296 0.370612 0.378274 0.385926 0.393577
0.401228 0.408878 0.416536 0.424186 0.431836 0.439484 0.447132 0.454787 0.462435 0.470083
0.477729 0.485376 0.493027 0.500673 0.508318 0.515963 0.523606 0.531255 0.538898 0.546541
0.554184 0.561827 0 0.00126444 0.00252952 0.00379526 0.00506165 0.00632928 0.00824637 0.0101659
0.0120887 0.0140177 0.015959 0.016929 0.017902 0.0188781 0.0198574 0.0208398 0.0218274 0.0228231
0.0238276 0.0248411 0.0258651 0.0263826 0.0269017 0.0274245 0.0279509 0.0284836 0.0287488 0.0290153
0.0292837 0.0295542 0.0296559 0.0299744 0.0302945 0.0306159 0.0309369 0.0312672 0.0313514 0.0314356
0.03152 0.0316045 0.0316689 0.0317009 0.0317328 0.0317647 0.0317966 0.0318271 0.0320039 0.0321806
0.0323571 0.0325334 0.0327113 0.0328758 0.0330399 0.0332037 0.033365 0.0334872 0.0336041 0.0337203
0.0338358 0.0339501 0.0340664 0.0341736 0.0342793 0.0343837 0.0344871 0.0345718 0.0346196 0.0346672
0.0347145 0.0347616 0.0348077 0.0349138 0.0350194 0.0351246 0.0352291 0.0353317 0.0354442 0.0355555
0.0356655 0.0357746 0.0359481 0.03606 0.0361715 0.0362826 0.0363934 0.0364918 0.0365836 0.0366755
0.0367674 0.0368593 0.0370344 0.0371478 0.037261 0.037374 0.0374869 0.0375985 0.0378163 0.0380328
0.0382495 0.0384669 0.038681 0.0388982 0.039115 0.039332 0.0395495 0.0397668 0.0399863 0.0402047
0.0404233 0.0406421 0.0408615 0.0410804 0.041299 0.0415179 0.0417375 0.0419592 0.0421819 0.0424031
0.0426248 0.0428472 0.0430706 0.0433794 0.0436895 0.0440036 0.0443219 0.0444814 0.0446602 0.0448395
0.0450192 0.0451995 0.0453812 0.0458621 0.0463369 0.0468117 0.047284 0.0477777 0.048274 0.0487626
0.0492548 0.0497514 0.0502631 0.050277 0.0502908 0.0503046 0.0503185 0.0503323 0.0513877 0.0524824
0.0536248 0.054733 0.0558629 0.0570512 0.0582194 0.059394 0.060574 0.0617514 0.0618773 0.0620032
0.0621291 0.0622551 0.0623855 0.0630196 0.0636489 0.0642774 0.0649078 0.065733 0.0661291 0.0665254
0.0669216 0.0673176 0.0677128 0.0689033 0.0700741 0.0712386 0.0724021 0.0735587 0.0746885 0.0758483
0.0770112 0.0781734 0.0793312 0.0799264 0.0805218 0.0811187 0.0817169 0.082347 0.0840273 0.0857018
0.0873622 0.0890088 0.0906382 0.0951082 0.0995588 0.103964 0.108286 0.112495 0.12071 0.128868
0.136964 0.144998 0.152908 0.159878 0.166845 0.17381 0.180772 0.187705 0.188508 0.189312
0.190115 0.190919 0.191722 0.199478 0.207234 0.21499 0.222747 0.230503 0.238246 0.246001
0.253757 0.261512 0.269269 0.277002 0.284757 0.292513 0.300269 0.308026 0.315751 0.323507
0.331263 0.339019 0.346776 0.354494 0.362249 0.370005 0.377762 0.385518 0.393229 0.400984
0.40874 0.416496 0.424252 0.431956 0.439711 0.447466 0.455221 0.462977 0.470674 0.478428
0.486182 0.493936 0.501691 0.509383 0.517136 0.524889 0.532642 0.540395 0.548081 0.55583
0.56358 0.57133 0.57908 0 0.00125417 0.00250929 0.00376573 0.00502362 0.00628308 0.0082145
0.0101486 0.0120855 0.0140294 0.0159878 0.0169606 0.0179372 0.0189179 0.0199026 0.0208915 0.0218861
0.0228913 0.0239081 0.0249367 0.0259783 0.0265069 0.0270386 0.0275769 0.028122 0.028676 0.0292413
0.0298143 0.0303995 0.0309982 0.0316243 0.0319428 0.032261 0.0325802 0.0329005 0.0332357 0.0332431
0.0332504 0.0332577 0.033265 0.0332722 0.0334107 0.0335492 0.0336874 0.0338222 0.0339052 0.0340826
0.0342565 0.034427 0.0345936 0.0347656 0.034904 0.0350399 0.0351732 0.0353034 0.0354197 0.0355434
0.0356666 0.0357893 0.0359101 0.0360249 0.0361396 0.0362514 0.0363604 0.0364688 0.0366117 0.0367208
0.0368298 0.0369386 0.0370473 0.0371468 0.0372535 0.0373603 0.037468 0.0375767 0.0377352 0.0380854
0.0384415 0.038806 0.0391666 0.0395092 0.0399705 0.040424 0.0408741 0.0413212 0.0417639 0.0422277
0.0426692 0.0431134 0.0435611 0.0440156 0.0444947 0.0449686 0.045443 0.0459231 0.0464117 0.0470426
0.0476846 0.0483328 0.0489892 0.0490967 0.0496185 0.0501407 0.0506629 0.051183 0.0517073 0.0528344
0.0539567 0.0551017 0.05627 0.0574849 0.0587563 0.0600052 0.0612354 0.06247 0.0637006 0.0644662
0.0652259 0.0659835 0.0667377 0.0676541 0.0680223 0.0683909 0.06876 0.0691296 0.0695167 0.0695951
0.0696735 0.0697519 0.0698304 0.0699088 0.0705278 0.0711455 0.0717629 0.0723801 0.0729966 0.0736202
0.0742363 0.074848 0.0754583 0.076072 0.0773113 0.0785502 0.0797953 0.081044 0.0822931 0.0847868
0.0872923 0.0897758 0.0922344 0.094651 0.0967971 0.0989392 0.101059 0.103156 0.106415 0.108781
0.111113 0.113413 0.11568 0.117911 0.126446 0.134894 0.143192 0.151304 0.159233 0.166995
0.174808 0.18262 0.190432 0.198242 0.205989 0.213797 0.221605 0.229413 0.237222 0.244956
0.252762 0.260568 0.268374 0.276182 0.283907 0.291711 0.299516 0.307322 0.315128 0.322846
0.330649 0.338453 0.346258 0.354063 0.361774 0.369576 0.377378 0.385181 0.392985 0.40069
0.40849 0.416291 0.424092 0.431895 0.439593 0.447392 0.455191 0.46299 0.470791 0.478483
0.486279 0.494076 0.501873 0.509671 0.517359 0.525154 0.532949 0.540744 0.54854 0.556222
0.56401 0.571799 0.579589 0.58738 0 0.0012591 0.00251888 0.00377934 0.00504124 0.00630479
0.00823367 0.0101655 0.0121002 0.0140424 0.0159988 0.0169719 0.0179491 0.0189304 0.0199158 0.0209056
0.0219002 0.0229055 0.0239224 0.0249511 0.0259927 0.0265218 0.0270536 0.0275912 0.0281356 0.0286893
0.0292522 0.0298227 0.0304025 0.0309948 0.0316168 0.0319328 0.0322493 0.032566 0.0328829 0.0332119
0.0334377 0.0336623 0.0338851 0.0341025 0.0341994 0.0343121 0.0344235 0.0345336 0.0346425 0.0347545
0.0349464 0.0351318 0.0353114 0.0354855 0.0356413 0.035726 0.0358104 0.0358945 0.0359776 0.0360585
0.0361507 0.0362412 0.036332 0.0364229 0.0365378 0.0365951 0.0366521 0.0367088 0.0367654 0.0368333
0.03691 0.0369865 0.0370631 0.0371395 0.037212 0.0376691 0.0381359 0.0386167 0.0391051 0.0395221
0.0399822 0.0404329 0.0408843 0.041338 0.0417962 0.0422707 0.0427351 0.0432017 0.0436707 0.0441413
0.0446315 0.0451116 0.0455948 0.0460833 0.0465789 0.0476078 0.0486571 0.0497174 0.0507905 0.0514248
0.0515212 0.0516176 0.051714 0.0518104 0.0519069 0.05303 0.0541742 0.0553454 0.0565407 0.0577555
0.0590023 0.0602393 0.0614783 0.0627263 0.0639704 0.0645949 0.0652062 0.0658196 0.0664363 0.0670538
0.0675276 0.0679998 0.0684736 0.068949 0.0695187 0.0696472 0.0697756 0.069904 0.0700323 0.0701605
0.0712885 0.0724149 0.0735408 0.0746656 0.0759807 0.0760628 0.0761448 0.0762268 0.0763087 0.0763905
0.0776338 0.0788803 0.0801311 0.081386 0.0826485 0.0851387 0.0876226 0.0900962 0.0925267 0.0949292
0.0992908 0.103556 0.107746 0.111862 0.118066 0.119295 0.120523 0.121748 0.122968 0.124386
0.13167 0.138811 0.145814 0.152684 0.15942 0.167181 0.174968 0.182753 0.190537 0.19832
0.206064 0.213845 0.221627 0.229409 0.23719 0.244922 0.252702 0.260482 0.268262 0.276042
0.283766 0.291544 0.299324 0.307103 0.314884 0.322599 0.330377 0.338156 0.345935 0.353715
0.361424 0.369201 0.376979 0.384758 0.392537 0.400239 0.408015 0.415792 0.423569 0.431347
0.439043 0.446819 0.454594 0.46237 0.470147 0.477837 0.48561 0.493384 0.501158 0.508933
0.516618 0.524391 0.532163 0.539936 0.547709 0.555389 0.563156 0.570923 0.578691 0.58646
0 0.00128002 0.00256069 0.00384262 0.00512605 0.00641099 0.00831766 0.0102269 0.0121388 0.0140573
0.015988 0.0169603 0.0179357 0.0189145 0.0198967 0.0208824 0.0218769 0.0228804 0.0238938 0.0249172
0.0259528 0.0264272 0.0269035 0.0273836 0.0278678 0.02798 0.0281056 0.0282313 0.028357 0.0284828
0.0286088 0.0291525 0.0297005 0.0302555 0.0308193 0.0314039 0.0314181 0.0314323 0.0314464 0.0314606
0.0314743 0.0315178 0.0315612 0.0316045 0.0316479 0.031688 0.0319217 0.0321554 0.032389 0.0326225
0.0328599 0.0329578 0.0330555 0.0331531 0.0332503 0.0333319 0.0335262 0.0337198 0.0339119 0.0341013
0.0342956 0.0343439 0.034392 0.0344398 0.0344873 0.0345305 0.0345652 0.0345997 0.0346341 0.0346683
0.0347008 0.0349001 0.0350955 0.0352871 0.0354704 0.0356435 0.0356826 0.0357215 0.0357603 0.035799
0.0358392 0.0359113 0.0359829 0.0360538 0.0361256 0.0362256 0.0363354 0.0364443 0.0365524 0.0366597
0.0367632 0.0369049 0.0370451 0.0371845 0.0373241 0.0375636 0.0376143 0.0376652 0.0377164 0.0377677
0.0378188 0.0380318 0.0382439 0.0384566 0.0386683 0.0388799 0.0390993 0.0393143 0.0395259 0.039738
0.0399523 0.0401689 0.0403837 0.0405975 0.0408117 0.041029 0.041251 0.0414694 0.0416859 0.0419026
0.0421207 0.0423401 0.0425579 0.0427746 0.0429917 0.0432116 0.0436596 0.044107 0.0445577 0.0450118
0.0454703 0.045942 0.0464033 0.0468652 0.0473299 0.0478071 0.0482357 0.0486624 0.0490904 0.0495227
0.0499642 0.0500247 0.0500852 0.0501458 0.0502062 0.0502669 0.0512943 0.0523297 0.0533866 0.0545199
0.0556681 0.0557749 0.0558818 0.0559889 0.056096 0.0562046 0.0572728 0.0583398 0.0594058 0.0604753
0.0615626 0.0627899 0.064 0.065209 0.0664147 0.067623 0.0687783 0.0699088 0.0710288 0.0721454
0.0736737 0.0736967 0.0737196 0.0737425 0.0737654 0.0737884 0.0745904 0.075389 0.0761863 0.0769873
0.0777636 0.078146 0.0785271 0.0789064 0.0792856 0.0796647 0.0820531 0.0844433 0.0868223 0.0891817
0.0915352 0.0961787 0.100874 0.10537 0.109711 0.113957 0.122339 0.130678 0.13893 0.147005
0.154904 0.162658 0.170409 0.178157 0.185902 0.193643 0.196611 0.199578 0.202544 0.205511
0.208485 0.213253 0.218022 0.22279 0.227558 0.232326 0.240055 0.247789 0.255525 0.26326
0.270996 0.278716 0.286451 0.294186 0.301922 0.309658 0.317371 0.325106 0.332842 0.340578
0.348314 0.35602 0.363756 0.371492 0.379228 0.386964 0.394664 0.402399 0.410135 0.417871
0.425607 0.433301 0.441036 0.448771 0.456507 0.464243 0.471931 0.479665 0.487399 0.495134
0.502869 0.510552 0.518286 0.526019 0.533753 0.541487 0.549165 0.556895 0.564626 0.572357
0.580088 0 0.00127765 0.00255602 0.00383552 0.00511633 0.00639844 0.00830035 0.0102042 0.0121109
0.0140225 0.0159424 0.0169069 0.0178733 0.0188417 0.0198123 0.0207852 0.0217594 0.0227387 0.0237232
0.0247124 0.0257054 0.0266967 0.0276943 0.0287004 0.029702 0.0307117 0.0307943 0.0308768 0.0309594
0.0310417 0.0311172 0.0320337 0.0329312 0.0338093 0.0346667 0.0355232 0.035973 0.0364207 0.0368664
0.0373111 0.0377501 0.0381907 0.0386289 0.0390662 0.0395029 0.0399336 0.0403684 0.0408033 0.0412384
0.0416737 0.0421091 0.042546 0.0429822 0.0434192 0.0438572 0.0442965 0.0451755 0.046062 0.0469555
0.0478558 0.0487799 0.0497279 0.0506664 0.0515957 0.0525309 0.0534787 0.0542994 0.0551275 0.0559589
0.0567928 0.0581451 0.0581854 0.0582256 0.0582659 0.0583062 0.0583465 0.0593369 0.0603281 0.06132
0.062312 0.0633028 0.0653195 0.0673205 0.0693153 0.0713207 0.0733256 0.0753015 0.077309 0.079334
0.0813644 0.0833999 0.0874742 0.0915569 0.0955881 0.0995602 0.103531 0.10625 0.108975 0.11171
0.114441 0.117788 0.122924 0.128024 0.133089 0.13812 0.143115 0.150835 0.158555 0.166273
0.173988 0.181699 0.189403 0.19711 0.204815 0.212519 0.220222 0.227918 0.235618 0.243316
0.251013 0.25871 0.266401 0.274095 0.281788 0.28948 0.297172 0.30486 0.312549 0.320237
0.327925 0.335611 0.343296 0.350981 0.358665 0.366348 0.374031 0.381712 0.389392 0.397073
0.404752 0.412431 0.420109 0.427786 0.435462 0.443138 0.450813 0.458488 0.466161 0.473835
0.481507 0.489179 0.49685 0.504521 0.512191 0.51986 0.527528 0.535196 0.542862 0.550529
0.558195 0.565861 0 0.00127424 0.00254911 0.00382444 0.00510101 0.00637884 0.00827508 0.0101735
0.0120743 0.013978 0.015886 0.0177958 0.0197109 0.0216309 0.0235558 0.0254888 0.0264602 0.0274287
0.0283924 0.0293512 0.0299751 0.0309932 0.0320038 0.0330042 0.0339945 0.0349735 0.035884 0.0367914
0.0376947 0.038595 0.0394861 0.0403782 0.0412686 0.0421578 0.0430459 0.0439325 0.0457106 0.0475055
0.0493138 0.0511315 0.0529659 0.0539999 0.0550357 0.0560747 0.057117 0.0588243 0.0595055 0.0601878
0.0608712 0.0615558 0.0622412 0.0641174 0.0659965 0.0678786 0.0697635 0.0716508 0.073551 0.0754405
0.0773314 0.0792242 0.0811183 0.0849228 0.0887273 0.0925381 0.0963551 0.100189 0.107925 0.115667
0.123352 0.130985 0.13863 0.146287 0.153943 0.161597 0.16925 0.176901 0.184555 0.192207
0.199858 0.207506 0.215153 0.222803 0.23045 0.238096 0.245741 0.253385 0.261031 0.268675
0.276318 0.28396 0.291602 0.299245 0.306886 0.314527 0.322166 0.329805 0.337446 0.345084
0.352722 0.360359 0.367995 0.375634 0.38327 0.390905 0.39854 0.406174 0.41381 0.421444
0.429077 0.436709 0.444341 0.451974 0.459606 0.467237 0.474867 0.482497 0.490128 0.497758
0.505387 0.513015 0.520642 0.528271 0.535898 0.543524 0.55115 0.558776 0 0.00127157
0.00254353 0.00381603 0.00508913 0.00636284 0.0101428 0.0139344 0.0177255 0.0215136 0.0253062 0.0257831
0.0262588 0.0267337 0.0272079 0.0276218 0.0290273 0.0304275 0.0318225 0.0332123 0.0345999 0.0364426
0.0382755 0.0400916 0.0419035 0.0437102 0.0455223 0.0473315 0.0491413 0.0509589 0.0527876 0.0546226