# vtk DataFile Version 2.0
tracks
ASCII
DATASET POLYDATA
POINTS 2610 float
-1.001 -0.05 0.0011 -0.900789 -0.0500223 0.00109731 -0.800577 -0.0500446 0.00109462 -0.700366 -0.0500668
0.00109194 -0.600155 -0.0500889 0.00108927 -0.499943 -0.050111 0.0010866 -0.424945 -0.0501155 0.00107893
-0.349947 -0.0501575 0.00106901 -0.274949 -0.0501992 0.00105917 -0.19995 -0.0502405 0.00104943 -0.124952
-0.0502814 0.00103977 -0.0499538 -0.0502916 0.00104016 0.0250446 -0.0503013 0.00104913 0.100043 -0.050311
0.00105818 0.175041 -0.0503208 0.0010673 0.25004 -0.0503307 0.00107651 0.400037 -0.0503248 0.00109301
0.550035 -0.0503238 0.00110762 0.700032 -0.0503228 0.00112242 0.85003 -0.0503217 0.00113742 1.00003
-0.0503207 0.00115262 1.15003 -0.0503322 0.00115991 1.30002 -0.0503384 0.00116461 1.45002 -0.0503446
0.00116933 1.60002 -0.0503508 0.00117407 1.75002 -0.0503571 0.00117883 1.90002 -0.0503663 0.00118176
2.05002 -0.0503732 0.0011839 2.20001 -0.0503802 0.00118605 2.35001 -0.0503871 0.00118821 2.50001
-0.0503941 0.00119036 2.65001 -0.0504027 0.00119146 2.80001 -0.0504112 0.00119235 2.95001 -0.0504198
0.00119324 3.10001 -0.0504284 0.00119413 3.25001 -0.050437 0.00119502 3.40001 -0.0504454 0.00119536
3.55001 -0.0504547 0.00119613 3.70001 -0.050464 0.0011969 3.85001 -0.0504733 0.00119767 4.00001
-0.0504826 0.00119843 4.15 -0.050491 0.00119859 4.3 -0.050501 0.00119943 4.45 -0.0505111
0.00120028 4.6 -0.0505212 0.00120113 4.75 -0.0505313 0.00120197 4.9 -0.0505395 0.00120205
5.05 -0.0505501 0.00120305 5.2 -0.0505606 0.00120404 5.35 -0.0505712 0.00120503 5.5
-0.0505818 0.00120602 5.65 -0.0505898 0.00120606 5.8 -0.0506007 0.0012072 5.95 -0.0506116
0.00120834 6.1 -0.0506225 0.00120948 6.25 -0.0506333 0.00121062 6.4 -0.0506413 0.00121063
6.55 -0.0506524 0.00121189 6.7 -0.0506634 0.00121315 6.85 -0.0506745 0.00121441 7
-0.0506856 0.00121567 7.15 -0.0506935 0.00121566 7.3 -0.0507047 0.00121701 7.45 -0.0507158
0.00121837 7.6 -0.0507271 0.00121972 7.75 -0.0507383 0.00122107 7.9 -0.0507461 0.00122105
8.05 -0.0507573 0.00122248 8.2 -0.0507686 0.00122391 8.35 -0.0507799 0.00122534 8.5
-0.0507912 0.00122678 8.65 -0.0507989 0.00122675 8.8 -0.0508103 0.00122824 8.95 -0.0508216
0.00122974 9.1 -0.0508329 0.00123124 9.25 -0.0508443 0.00123274 9.4 -0.0508519 0.00123269
9.55 -0.0509117 0.00123504 9.7 -0.0510253 0.00123831 9.85 -0.051193 0.00124248 10
-0.0514145 0.00124756 -1.001 -0.05 0.0537316 -0.900807 -0.0501161 0.0535749 -0.800614 -0.050233
0.0533908 -0.700422 -0.0503758 0.0531733 -0.600229 -0.0505522 0.0529208 -0.500035 -0.0507623 0.0526336
-0.425004 -0.0510235 0.0524148 -0.349973 -0.0513759 0.0521323 -0.274943 -0.0517774 0.0518715 -0.199913
-0.0522142 0.0516537 -0.124879 -0.0526359 0.0515188 -0.0498863 -0.0529214 0.0515633 0.0251066 -0.0531601
0.0517376 0.100099 -0.0533939 0.051981 0.175092 -0.0536369 0.0522728 0.250087 -0.0538746 0.0525993
0.400077 -0.054294 0.0532507 0.550067 -0.0547127 0.053775 0.700057 -0.0550872 0.0542492 0.850048
-0.0554175 0.054673 1.00003 -0.0557127 0.0550457 1.14996 -0.0561185 0.0553336 1.29989 -0.0564894
0.0556013 1.44983 -0.0568566 0.0558339 1.59976 -0.0572202 0.0560311 1.71865 -0.0575058 0.0561596
1.72492 -0.0575215 0.0561654 1.7312 -0.0575373 0.0561713 1.73747 -0.0575531 0.0561771 1.74374
-0.057569 0.0561829 1.75002 -0.0575849 0.0561886 1.90002 -0.057967 0.0563248 2.05002 -0.0583444
0.0564436 2.20001 -0.0587176 0.0565448 2.35001 -0.0590865 0.0566284 2.50001 -0.0594512 0.0566943
2.65001 -0.0598212 0.0567489 2.80001 -0.0601904 0.0567971 2.95001 -0.0605586 0.0568378 3.10001
-0.0609257 0.056871 3.25001 -0.0612918 0.0568967 3.40001 -0.0616591 0.056917 3.55001 -0.0620271
0.056937 3.70001 -0.0623935 0.0569551 3.85001 -0.0627581 0.0569713 4 -0.063121 0.0569856
4.15 -0.063482 0.0569973 4.3 -0.0638461 0.0570102 4.45 -0.0642083 0.0570224 4.6
-0.0645688 0.0570339 4.75 -0.0649276 0.0570448 4.9 -0.065282 0.0570532 5.05 -0.0656408
0.0570636 5.2 -0.0659979 0.0570737 5.35 -0.0663533 0.0570835 5.5 -0.0667071 0.0570928
5.65 -0.0670546 0.0570996 5.8 -0.0674076 0.0571089 5.95 -0.0677591 0.057118 6.1
-0.068109 0.0571268 6.25 -0.0684574 0.0571354 6.4 -0.0687985 0.0571412 6.55 -0.0691456
0.0571498 6.7 -0.0694913 0.0571582 6.85 -0.0698355 0.0571665 7 -0.0701781 0.0571746
7.15 -0.0705129 0.0571796 7.3 -0.0708541 0.0571877 7.45 -0.0711939 0.0571956 7.6
-0.0715323 0.0572034 7.75 -0.0718692 0.0572111 7.9 -0.0721977 0.0572155 8.05 -0.072533
0.0572232 8.2 -0.0728669 0.0572308 8.35 -0.0731994 0.0572384 8.5 -0.0735305 0.0572459
8.65 -0.0738529 0.0572501 8.8 -0.0741823 0.0572576 8.95 -0.0745102 0.0572649 9.1
-0.0748366 0.0572721 9.25 -0.0751616 0.0572792 9.4 -0.0754778 0.0572827 9.55 -0.0758015
0.0572897 9.7 -0.0761246 0.0572966 9.85 -0.0764471 0.0573035 10 -0.0767689 0.0573102
-1.001 -0.05 0.106363 -0.900818 -0.0500883 0.106136 -0.800636 -0.050175 0.10586 -0.700455
-0.0502907 0.105538 -0.600274 -0.05048 0.104996 -0.50009 -0.0507425 0.104235 -0.424996 -0.0510439
0.103654 -0.349901 -0.0514088 0.103056 -0.274806 -0.0517808 0.102529 -0.199711 -0.0520978 0.102111
-0.124606 -0.05246 0.102023 -0.0496036 -0.0527285 0.10215 0.0253983 -0.0529414 0.102395 0.1004
-0.0531405 0.102722 0.175401 -0.0533596 0.103135 0.250411 -0.0535984 0.103632 0.400347 -0.0540399
0.104664 0.550283 -0.0544819 0.10556 0.70022 -0.0548824 0.106365 0.850158 -0.0552492 0.106998
1.00009 -0.0555821 0.10746 1.15007 -0.0560526 0.107734 1.30006 -0.0563724 0.108038 1.45005
-0.0566381 0.10832 1.60003 -0.0568968 0.108569 1.75002 -0.0571485 0.108786 1.90002 -0.0574771
0.108935 2.05002 -0.0577389 0.109096 2.20001 -0.0579942 0.10924 2.35001 -0.0582467 0.109367
2.50001 -0.0584963 0.109476 2.65001 -0.0588049 0.10955 2.80001 -0.0590691 0.109622 2.95001
-0.0593317 0.109688 3.10001 -0.0595934 0.109745 3.25001 -0.0598542 0.109796 3.40001 -0.0601601
0.109835 3.55001 -0.0604273 0.109874 3.70001 -0.0606923 0.109911 3.85001 -0.0609555 0.109946
4 -0.0612169 0.109979 4.15 -0.0615157 0.11001 4.3 -0.061782 0.110037 4.45
-0.0620461 0.110063 4.6 -0.0623083 0.110088 4.75 -0.0625687 0.110113 4.9 -0.0628599
0.110141 5.05 -0.0631231 0.110162 5.2 -0.0633843 0.110182 5.35 -0.0636438 0.110202
5.5 -0.0639015 0.110221 5.65 -0.064185 0.110248 5.8 -0.0644445 0.110264 5.95
-0.0647023 0.11028 6.1 -0.0649584 0.110296 6.25 -0.0652129 0.110311 6.4 -0.0654891
0.110337 6.55 -0.0657447 0.11035 6.7 -0.0659985 0.110363 6.85 -0.0662509 0.110375
7 -0.0665018 0.110388 7.15 -0.066771 0.110412 7.3 -0.0670223 0.110423 7.45
-0.0672721 0.110434 7.6 -0.0675204 0.110444 7.75 -0.0677672 0.110454 7.9 -0.0680297
0.110478 8.05 -0.0682768 0.110487 8.2 -0.0685223 0.110495 8.35 -0.0687664 0.110504
8.5 -0.0690092 0.110512 8.65 -0.0692651 0.110536 8.8 -0.0695076 0.110543 8.95
-0.0697486 0.110551 9.1 -0.0699881 0.110558 9.25 -0.0702262 0.110565 9.4 -0.0704754
0.110587 9.55 -0.0707136 0.110593 9.7 -0.0709511 0.110599 9.85 -0.071188 0.110604
10 -0.0714242 0.11061 -1.001 -0.05 0.158995 -0.900796 -0.0500984 0.158767 -0.800593
-0.0502144 0.158417 -0.700392 -0.050391 0.157676 -0.600196 -0.0506416 0.156461 -0.499992 -0.050958
0.154617 -0.424721 -0.0515814 0.153018 -0.349437 -0.0520695 0.152108 -0.274149 -0.0524903 0.151561
-0.19886 -0.0529113 0.151287 -0.123701 -0.0532544 0.151362 -0.0487815 -0.0534009 0.151546 0.0261364
-0.0534987 0.152054 0.101052 -0.0536531 0.152789 0.175967 -0.0538343 0.153618 0.250945 -0.054001
0.154474 0.400785 -0.054235 0.155938 0.550626 -0.0547783 0.15715 0.700469 -0.0552863 0.157929
0.850314 -0.055715 0.158549 1.00014 -0.0561097 0.158997 1.15012 -0.0566428 0.159258 1.30009
-0.0570247 0.159549 1.45007 -0.0573093 0.159828 1.60005 -0.0575128 0.16009 1.75002 -0.0577095
0.16032 1.90002 -0.057984 0.160482 2.05002 -0.0581912 0.160655 2.20002 -0.0583853 0.160814
2.35001 -0.0585699 0.160958 2.50001 -0.0587517 0.161084 2.65001 -0.058993 0.161175 2.80001
-0.0591897 0.161264 2.95001 -0.0593837 0.161346 3.10001 -0.0595759 0.161421 3.25001 -0.0597672
0.161488 3.40001 -0.0600037 0.161545 3.55001 -0.0602016 0.161601 3.70001 -0.0603965 0.161656
3.85001 -0.0605888 0.161709 4 -0.0607794 0.16176 4.15 -0.0610073 0.16181 4.3
-0.0612028 0.161855 4.45 -0.0613955 0.1619 4.6 -0.0615857 0.161944 4.75 -0.0617741
0.161987 4.9 -0.061993 0.162034 5.05 -0.0621843 0.162073 5.2 -0.0623731 0.162112
5.35 -0.0625597 0.162151 5.5 -0.0627445 0.162189 5.65 -0.0629547 0.162234 5.8
-0.0631413 0.16227 5.95 -0.0633258 0.162304 6.1 -0.0635083 0.162339 6.25 -0.0636892
0.162373 6.4 -0.0638913 0.162417 6.55 -0.0640732 0.162449 6.7 -0.0642531 0.162481
6.85 -0.0644312 0.162513 7 -0.0646078 0.162544 7.15 -0.0648022 0.162587 7.3
-0.0649793 0.162617 7.45 -0.0651546 0.162646 7.6 -0.0653282 0.162675 7.75 -0.0655004
0.162704 7.9 -0.0656877 0.162747 8.05 -0.06586 0.162774 8.2 -0.0660307 0.162802
8.35 -0.0661998 0.162829 8.5 -0.0663675 0.162857 8.65 -0.0665479 0.162898 8.8
-0.0667154 0.162925 8.95 -0.0668811 0.162951 9.1 -0.0670453 0.162977 9.25 -0.067208
0.163002 9.4 -0.0673813 0.163043 9.55 -0.0675442 0.163067 9.7 -0.067706 0.163092
9.85 -0.0678671 0.163115 10 -0.0680276 0.163139 -1.001 -0.05 0.211626 -0.947586
-0.050086 0.211467 -0.894173 -0.050177 0.211274 -0.84076 -0.050273 0.211046 -0.787347 -0.0504138
0.210753 -0.724018 -0.0506658 0.210271 -0.6792 -0.0509501 0.209619 -0.634387 -0.0512926 0.20874
-0.589576 -0.0516398 0.207725 -0.544768 -0.0519929 0.206572 -0.499928 -0.0523532 0.20528 -0.46951
-0.0526541 0.204229 -0.439093 -0.0529651 0.203118 -0.408672 -0.0532606 0.202134 -0.378247 -0.0535418
0.201274 -0.329349 -0.0539793 0.200029 -0.28844 -0.0543312 0.199137 -0.247526 -0.054684 0.198465
-0.206609 -0.0550416 0.198108 -0.16569 -0.0553623 0.198041 -0.124888 -0.055607 0.198239 -0.0496143
-0.0559304 0.199006 0.0256567 -0.056084 0.200004 0.100923 -0.0562057 0.201331 0.176187 -0.0563579
0.202732 0.231268 -0.0564632 0.203601 0.235311 -0.0564701 0.203658 0.239353 -0.056477 0.203714
0.243395 -0.0564838 0.20377 0.247437 -0.0564905 0.203826 0.251479 -0.0564972 0.203881 0.326237
-0.056619 0.204888 0.400997 -0.056743 0.205766 0.475758 -0.0568684 0.206514 0.55052 -0.0570231
[...]
POINT_DATA 2610
FIELD attributes 4
age 1 2610 float
0 0.00501118 0.0100224 0.0150335 0.0200447 0.0250559 0.0288055 0.0325531 0.0363007 0.0400484 0.0437961
0.0475445 0.0512901 0.0550357 0.0587812 0.0625267 0.0700234 0.0775224 0.0850214 0.0925204 0.100019
0.107519 0.115019 0.122519 0.130019 0.137519 0.145019 0.152519 0.160018 0.167518 0.175018
0.182518 0.190017 0.197517 0.205017 0.212517 0.220016 0.227516 0.235016 0.242515 0.250015
0.257515 0.265015 0.272515 0.280014 0.287514 0.295014 0.302514 0.310013 0.317513 0.325013
0.332513 0.340012 0.347512 0.355012 0.362512 0.370012 0.377511 0.385011 0.392511 0.400011
0.407511 0.41501 0.42251 0.43001 0.437509 0.445009 0.452509 0.460009 0.467509 0.475008
0.482508 0.490008 0.497508 0.505008 0.512507 0.520008 0.527507 0.535005 0.542502 0.549999
0 0.00502576 0.0100527 0.0150737 0.0200864 0.0250908 0.0288293 0.0325618 0.0362875 0.0400064
0.0437191 0.0474247 0.0511235 0.0548205 0.0585175 0.0622163 0.0696266 0.0770627 0.0845136 0.0919794
0.0994599 0.106951 0.114443 0.121936 0.12943 0.135374 0.135688 0.136002 0.136315 0.136629
0.136943 0.144443 0.151943 0.159443 0.166941 0.17444 0.181938 0.189435 0.196932 0.204429
0.211926 0.219423 0.226919 0.234416 0.241913 0.24941 0.256908 0.264405 0.271902 0.2794
0.286897 0.294395 0.301893 0.309391 0.316889 0.324387 0.331885 0.339383 0.346882 0.35438
0.361878 0.369378 0.376876 0.384375 0.391874 0.399372 0.406872 0.414371 0.42187 0.42937
0.436869 0.444369 0.451868 0.459368 0.466868 0.474368 0.481868 0.489368 0.496868 0.504369
0.511869 0.51937 0.526871 0.534371 0.541872 0.549373 0 0.00502779 0.0100574 0.0150811
0.020098 0.0251085 0.028855 0.0325943 0.0363243 0.0400494 0.0437649 0.047469 0.0511674 0.0548648
0.0585614 0.0622576 0.0696555 0.0770809 0.0845246 0.0919903 0.0994779 0.106981 0.114485 0.121992
0.1295 0.13701 0.144524 0.152032 0.15954 0.167048 0.174554 0.182066 0.189571 0.197076
0.204581 0.212086 0.219597 0.227101 0.234606 0.24211 0.249615 0.257126 0.264631 0.272136
0.279641 0.287146 0.294658 0.302163 0.309668 0.317174 0.324679 0.332191 0.339697 0.347202
0.354708 0.362214 0.369727 0.377233 0.384739 0.392245 0.399751 0.407264 0.41477 0.422276
0.429783 0.437289 0.444803 0.45231 0.459816 0.467323 0.47483 0.482344 0.489851 0.497358
0.504865 0.512373 0.519887 0.527395 0.534902 0.54241 0.549917 0 0.00502991 0.0100658
0.0150988 0.0201257 0.0251477 0.0289127 0.0326659 0.0364071 0.0401378 0.0438518 0.0475461 0.0512352
0.0549235 0.0586111 0.0623025 0.0696899 0.077114 0.0845685 0.0920387 0.0995301 0.107042 0.114554
0.122072 0.129593 0.137116 0.144644 0.152166 0.159688 0.16721 0.174731 0.182257 0.189777
0.197297 0.204816 0.212335 0.21986 0.227379 0.234899 0.242418 0.249937 0.257463 0.264982
0.272502 0.280021 0.287541 0.295067 0.302587 0.310107 0.317627 0.325147 0.332674 0.340194
0.347715 0.355235 0.362755 0.370283 0.377803 0.385324 0.392845 0.400365 0.407893 0.415414
0.422935 0.430456 0.437978 0.445506 0.453027 0.460549 0.46807 0.475592 0.483121 0.490642
0.498164 0.505686 0.513208 0.520737 0.52826 0.535782 0.543304 0.550826 0 0.00268492
0.00537151 0.00805979 0.0107474 0.0139317 0.0161837 0.0184353 0.0206861 0.022936 0.0251868 0.0267114
0.0282339 0.0297534 0.03127 0.0337017 0.0357282 0.037749 0.0397644 0.0417743 0.0437729 0.0474508
0.0511306 0.054812 0.0585002 0.0612075 0.0614065 0.0616056 0.0618046 0.0620037 0.0622029 0.0658861
0.0695794 0.0732827 0.0769964 0.08072 0.0813722 0.0820245 0.0826767 0.0833291 0.0839635 0.0870618
0.0901623 0.0932652 0.0963705 0.0994776 0.106997 0.114518 0.122044 0.129574 0.137109 0.14465
0.152185 0.15972 0.167256 0.174791 0.182331 0.189865 0.197398 0.204932 0.212465 0.220004
0.227537 0.23507 0.242603 0.250137 0.257677 0.26521 0.272743 0.280277 0.287811 0.295351
0.302885 0.310419 0.317953 0.325487 0.333028 0.340562 0.348097 0.355631 0.363166 0.370707
0.378242 0.385777 0.393311 0.400846 0.408388 0.415923 0.423459 0.430994 0.438529 0.446072
0.453607 0.461143 0.468678 0.476214 0.483757 0.491293 0.498829 0.506365 0.513901 0.521444
0.528981 0.536517 0.544054 0.55159 0 0.00126443 0.00252923 0.00379471 0.00506099 0.00632808
0.0101155 0.0139111 0.0177182 0.0215316 0.0253273 0.0269008 0.0284642 0.0300207 0.0315702 0.0329896
0.033317 0.033644 0.0339707 0.0342972 0.0346236 0.0364511 0.0382715 0.0400828 0.041889 0.0436858
0.0454855 0.0472903 0.0491072 0.0509291 0.0527554 0.0527672 0.0527791 0.0527909 0.0528028 0.0528147
0.0546334 0.0564554 0.0582809 0.0601098 0.0619419 0.0656395 0.0693541 0.0730865 0.076829 0.0805795
0.0843423 0.0881046 0.0918677 0.0956335 0.0994015 0.106935 0.114471 0.122011 0.129555 0.137103
0.144668 0.152218 0.159768 0.167318 0.174868 0.182428 0.189977 0.197526 0.205075 0.212623
0.22018 0.227729 0.235277 0.242826 0.250374 0.257932 0.26548 0.273029 0.280578 0.288127
0.295685 0.303234 0.310783 0.318333 0.325882 0.33344 0.34099 0.348539 0.356089 0.363639
0.371197 0.378747 0.386297 0.393847 0.401397 0.408956 0.416506 0.424057 0.431607 0.439158
0.446717 0.454267 0.461818 0.469369 0.47692 0.484479 0.49203 0.499581 0.507132 0.514683
0.522243 0.529795 0.537346 0.544897 0.552448 0 0.00126543 0.00253137 0.00379783 0.0050648
0.00633231 0.00822666 0.0101234 0.0120225 0.0139245 0.0158286 0.0177459 0.0196681 0.0215911 0.0235172
0.0254555 0.0264263 0.0273945 0.0283583 0.0293176 0.0302766 0.0307473 0.0312164 0.0316834 0.0321484
0.032661 0.0331201 0.0335771 0.0340321 0.0344851 0.0349355 0.0358452 0.0367516 0.0376539 0.038552
0.0394412 0.0403296 0.0412165 0.0421027 0.0429886 0.0438755 0.0450449 0.0462193 0.0473991 0.0485841
0.0487248 0.0495526 0.0503823 0.0512139 0.0520473 0.0528819 0.0547108 0.056554 0.0584087 0.0602702
0.0621319 0.0640037 0.0658764 0.0677509 0.069628 0.0715092 0.0733974 0.0752804 0.077159 0.0790393
0.0809249 0.0842895 0.0876586 0.0910296 0.0944023 0.097195 0.0977373 0.0982797 0.0988221 0.0993646
0.0999072 0.107494 0.115083 0.122678 0.130278 0.137884 0.145517 0.153123 0.160725 0.168327
0.175928 0.183549 0.191148 0.198745 0.206342 0.213939 0.221556 0.229153 0.236748 0.244344
0.25194 0.259555 0.267151 0.274745 0.282341 0.289936 0.29755 0.305145 0.31274 0.320335
0.32793 0.335542 0.343137 0.350731 0.358326 0.365921 0.373531 0.381126 0.38872 0.396314
0.403909 0.411518 0.419112 0.426706 0.4343 0.441894 0.449502 0.457096 0.464689 0.472283
0.479877 0.487484 0.495077 0.50267 0.510263 0.517857 0.525462 0.533055 0.540648 0.54824
0.555834 0 0.0012628 0.00252627 0.00379078 0.00505647 0.00632333 0.00823337 0.0101454 0.0120612
0.0139803 0.0159047 0.017822 0.0197521 0.0216951 0.0236506 0.0256283 0.0266278 0.027628 0.0286285
0.0296279 0.030639 0.030881 0.031123 0.0313646 0.0316043 0.0317918 0.0325463 0.0332882 0.0340168
0.0347314 0.0354376 0.0358838 0.0363283 0.0367712 0.0372126 0.0376481 0.0380847 0.0385184 0.0389497
0.0393803 0.0398087 0.04024 0.0406712 0.0411026 0.0415346 0.0419693 0.042404 0.0428383 0.0432731
0.0437089 0.044147 0.0450227 0.0459089 0.0468061 0.0477125 0.0486363 0.0492373 0.0498383 0.0504408
0.0510454 0.0517688 0.0520776 0.0523866 0.0526961 0.0530059 0.0533164 0.0542706 0.0552209 0.0561744
0.0571343 0.0580948 0.0590632 0.0600314 0.0610006 0.0619718 0.0629444 0.0649076 0.0668667 0.0688212
0.0707795 0.0727186 0.0746457 0.0765858 0.0785391 0.0804993 0.0824645 0.0864161 0.090365 0.0942915
0.0981976 0.10211 0.109933 0.117726 0.125453 0.133118 0.140789 0.14849 0.15617 0.163844
0.171515 0.179183 0.186867 0.194534 0.202198 0.209861 0.217523 0.2252 0.232862 0.240522
0.248181 0.25584 0.263512 0.271171 0.278828 0.286485 0.294141 0.301809 0.309465 0.317121
0.324775 0.332429 0.340094 0.347748 0.355401 0.363053 0.370705 0.378366 0.386018 0.393669
0.401319 0.408969 0.416626 0.424276 0.431925 0.439573 0.447221 0.454876 0.462524 0.470171
0.477817 0.485463 0.493115 0.50076 0.508405 0.516049 0.523693 0.531341 0.538985 0.546628
0.55427 0.561913 0 0.00126444 0.00252953 0.00379527 0.00506167 0.00632931 0.00824641 0.0101659
0.0120887 0.0140178 0.0159591 0.0169292 0.0179022 0.0188783 0.0198576 0.0208401 0.0218277 0.0228234
0.023828 0.0248416 0.0258657 0.0263832 0.0269025 0.0274254 0.0279519 0.0284847 0.0287618 0.0290402
0.0293206 0.0296035 0.0297035 0.0300133 0.0303246 0.0306369 0.030949 0.0312698 0.0313568 0.0314437
0.0315307 0.031618 0.0316838 0.0317201 0.0317564 0.0317927 0.031829 0.0318635 0.032034 0.0322043
0.0323745 0.0325445 0.032716 0.0328873 0.0330583 0.0332288 0.0333967 0.0335223 0.0336337 0.0337445
0.0338546 0.0339637 0.0340745 0.0341815 0.0342871 0.0343913 0.0344946 0.0345793 0.0346322 0.0346847
0.0347369 0.0347888 0.0348396 0.0349414 0.0350428 0.0351437 0.0352441 0.0353424 0.03546 0.0355763
0.0356912 0.0358051 0.0359886 0.0360944 0.0361998 0.0363048 0.0364096 0.0365034 0.0365915 0.0366796
0.0367678 0.0368559 0.0370201 0.0371392 0.037258 0.0373766 0.0374951 0.0376121 0.0378304 0.0380471
0.038264 0.0384817 0.0386959 0.0389136 0.0391308 0.0393483 0.0395662 0.039784 0.0400043 0.0402233
0.0404424 0.0406618 0.0408818 0.0411015 0.0413208 0.0415404 0.0417607 0.0419832 0.0422068 0.0424287
0.042651 0.042874 0.043098 0.0434323 0.0437682 0.0441085 0.0444537 0.0446005 0.044762 0.0449239
0.0450862 0.0452489 0.0454128 0.0458945 0.04637 0.0468461 0.047318 0.0478119 0.0483236 0.048827
0.0493347 0.0498472 0.050367 0.0503804 0.0503938 0.0504071 0.0504205 0.0504338 0.0514805 0.0525704
0.0537087 0.054811 0.0559325 0.0571299 0.0583053 0.0594876 0.0606757 0.0618619 0.0620654 0.0622687
0.0624719 0.0626753 0.0628901 0.0634985 0.0641025 0.064706 0.0653113 0.0660902 0.0664489 0.0668078
0.0671666 0.0675252 0.0678832 0.0690861 0.0702675 0.0714446 0.0726206 0.0737889 0.074931 0.0761026
0.0772775 0.0784546 0.079629 0.0803887 0.0811487 0.0819109 0.0826753 0.0835032 0.0850385 0.0865622
0.0880745 0.0895754 0.0910626 0.09557 0.100054 0.104479 0.108814 0.113023 0.121227 0.129372
0.137449 0.145459 0.153359 0.161124 0.168886 0.176646 0.184403 0.192157 0.195146 0.198135
0.201124 0.204113 0.207127 0.211882 0.216638 0.221393 0.226148 0.230903 0.238644 0.246392
0.254139 0.261887 0.269634 0.277366 0.285113 0.292861 0.300608 0.308355 0.31608 0.323827
0.331574 0.339321 0.347069 0.354786 0.362532 0.370279 0.378026 0.385773 0.393484 0.40123
0.408976 0.416722 0.424469 0.432173 0.439918 0.447664 0.455409 0.463155 0.470854 0.478598
0.486342 0.494087 0.501832 0.509525 0.517268 0.525011 0.532754 0.540497 0.548184 0.555924
0.563664 0.571404 0.579146 0 0.00125416 0.00250927 0.0037657 0.00502357 0.00628302 0.00821442
0.0101485 0.0120854 0.0140293 0.0159876 0.0169604 0.017937 0.0189177 0.0199024 0.0208913 0.0218858
0.0228911 0.0239079 0.0249367 0.0259783 0.0265069 0.0270387 0.0275771 0.0281223 0.0286764 0.0292418
0.0298149 0.0304006 0.031 0.0316262 0.0319448 0.0322631 0.0325824 0.0329027 0.0332377 0.0332779
0.0333181 0.0333582 0.0333984 0.0334343 0.0335367 0.033639 0.0337391 0.033838 0.0339113 0.0340881
0.0342615 0.0344315 0.0345976 0.0347691 0.0349078 0.0350439 0.0351776 0.0353081 0.0354245 0.0355482
0.0356712 0.0357937 0.0359145 0.0360292 0.036144 0.0362559 0.036365 0.0364735 0.0366162 0.0367256
0.0368348 0.0369438 0.0370526 0.0371522 0.037311 0.03747 0.037631 0.037794 0.0380811 0.0383674
0.0386596 0.0389519 0.0392409 0.0395222 0.0399843 0.0404395 0.0408912 0.04134 0.041784 0.0422444
0.0426857 0.0431304 0.0435784 0.0440303 0.044506 0.0449758 0.0454526 0.0459345 0.0464256 0.0471617
0.0479131 0.0486737 0.0494479 0.0494931 0.0499465 0.0503998 0.0508515 0.0513016 0.0517545 0.0528872
0.0540173 0.055173 0.0563512 0.0575695 0.0588476 0.0600998 0.061332 0.0625718 0.0638124 0.0646817
0.0655428 0.0664019 0.0672561 0.0683056 0.0686564 0.0690074 0.0693588 0.0697105 0.0700619 0.0703689
0.0706765 0.0709842 0.0712922 0.0716172 0.0719315 0.0722458 0.0725599 0.072874 0.0731876 0.0738147
0.074437 0.0750592 0.0756806 0.0762993 0.0775488 0.0787993 0.0800588 0.0813202 0.0825797 0.0850834
0.0875949 0.0900761 0.0925192 0.0949208 0.0986463 0.102349 0.105974 0.109522 0.117728 0.117829
0.11793 0.118032 0.118133 0.118233 0.126737 0.135153 0.14343 0.151525 0.159441 0.167201
0.17499 0.182778 0.190564 0.19835 0.206094 0.213878 0.221662 0.229445 0.237229 0.244962
0.252743 0.260524 0.268305 0.276087 0.283811 0.291591 0.299371 0.307151 0.314932 0.322649
0.330428 0.338207 0.345986 0.353766 0.361476 0.369253 0.377031 0.384809 0.392588 0.400291
0.408068 0.415844 0.423621 0.431398 0.439096 0.44687 0.454645 0.46242 0.470195 0.477888
0.48566 0.493433 0.501206 0.50898 0.516667 0.524438 0.532209 0.53998 0.547751 0.555432
0.563198 0.570965 0.578732 0.586499 0 0.00125908 0.00251885 0.0037793 0.00504118 0.00630471
0.00823352 0.0101653 0.0121 0.0140421 0.0159984 0.0169714 0.0179484 0.0189296 0.019915 0.0209047
0.0218993 0.0229044 0.0239213 0.0249499 0.0259915 0.0265205 0.0270524 0.02759 0.0281343 0.0286879
0.0292508 0.0298214 0.0304012 0.0309936 0.0316155 0.0319314 0.0322479 0.0325647 0.0328816 0.0332108
0.03344 0.0336679 0.033894 0.0341144 0.0342114 0.0343215 0.0344304 0.034538 0.0346444 0.0347538
0.0349489 0.0351375 0.03532 0.0354968 0.0356511 0.0357342 0.035817 0.0358991 0.0359803 0.0360596
0.036096 0.0361321 0.0361682 0.0362045 0.0362441 0.0363563 0.0364676 0.0365782 0.0366879 0.0368384
0.0369149 0.0369913 0.0370676 0.0371438 0.0372161 0.0376753 0.0381411 0.0386202 0.0391069 0.0395215
0.0399837 0.0404345 0.0408854 0.0413381 0.0417966 0.042271 0.0427354 0.0431986 0.0436638 0.044135
0.0446246 0.045104 0.0455822 0.0460653 0.0465586 0.0475885 0.0486399 0.0497032 0.0507807 0.0515168
0.0515932 0.0516695 0.0517458 0.0518221 0.0518984 0.0530237 0.0541736 0.055354 0.0565588 0.0577829
0.0590499 0.0602981 0.0615345 0.0627844 0.0640257 0.0646503 0.0652623 0.0658719 0.0664791 0.0670914
0.0677171 0.0683336 0.068947 0.069562 0.0701776 0.0714305 0.0726896 0.0739464 0.0751984 0.076441
0.0769116 0.0773808 0.0778503 0.0783202 0.0788776 0.0788845 0.0788914 0.0788983 0.0789052 0.0789121
0.0796695 0.0804289 0.0811906 0.0819544 0.0827208 0.0852272 0.0877203 0.0901992 0.0926203 0.0950144
0.0997918 0.1045 0.109104 0.113606 0.117987 0.122706 0.127388 0.132014 0.136586 0.146751
0.149262 0.151756 0.154233 0.156694 0.159138 0.166895 0.174656 0.182415 0.190172 0.197929
0.205669 0.213425 0.22118 0.228935 0.236689 0.244419 0.252172 0.259925 0.267679 0.275432
0.283153 0.290906 0.298658 0.306411 0.314165 0.321878 0.32963 0.337382 0.345135 0.352888
0.360594 0.368346 0.376097 0.383849 0.391601 0.399302 0.407052 0.414803 0.422554 0.430305
0.438 0.445749 0.453499 0.461249 0.468999 0.476688 0.484436 0.492185 0.499933 0.507682
0.515366 0.523113 0.53086 0.538606 0.546353 0.554032 0.561775 0.569518 0.577262 0.585006
0 0.00127999 0.00256062 0.00384252 0.0051259 0.00641078 0.00831736 0.0102265 0.0121383 0.0140567
0.0159872 0.0169594 0.0179346 0.0189132 0.0198952 0.0208808 0.0218751 0.0228784 0.0238916 0.0249148
0.0259501 0.026403 0.0268576 0.0273158 0.0277775 0.0278976 0.028039 0.0281805 0.0283221 0.0284638
0.0286058 0.0291493 0.029697 0.0302517 0.0308153 0.0313997 0.0314036 0.0314074 0.0314113 0.0314152
0.031419 0.031478 0.031537 0.0315959 0.0316549 0.0317077 0.0319364 0.0321649 0.0323934 0.0326217
0.0328538 0.0329403 0.0330267 0.033113 0.033199 0.0332727 0.0334773 0.033681 0.0338835 0.0340829
0.0342884 0.0343422 0.0343957 0.0344489 0.0345019 0.0345492 0.0345686 0.0345881 0.0346074 0.0346267
0.0346455 0.0348544 0.0350589 0.0352593 0.0354518 0.0356345 0.0356636 0.0356926 0.0357215 0.0357503
0.03578 0.0358681 0.0359554 0.0360419 0.0361296 0.0362536 0.0363552 0.036456 0.0365562 0.0366554
0.0367516 0.0368712 0.0369898 0.0371077 0.0372259 0.0374082 0.0374877 0.0375671 0.0376468 0.037727
0.0378059 0.0380181 0.0382285 0.0384391 0.0386489 0.0388607 0.0390803 0.0392954 0.0395063 0.0397176
0.0399315 0.0401476 0.040362 0.0405749 0.0407883 0.0410055 0.0412273 0.0414455 0.0416614 0.0418777
0.0420953 0.0423141 0.0425313 0.0427477 0.0429646 0.0431838 0.0436296 0.0440749 0.0445235 0.0449755
0.0454359 0.045914 0.0463786 0.0468377 0.0472998 0.0477753 0.048259 0.0487411 0.0492246 0.0497126
0.0502091 0.0512266 0.0522526 0.0532977 0.054404 0.0555259 0.0557419 0.0559581 0.0561747 0.0563919
0.0566151 0.0575624 0.0585085 0.0594534 0.0603998 0.0613585 0.0625645 0.0637536 0.0649502 0.0661536
0.0673468 0.0685719 0.0697744 0.0709664 0.0721474 0.0733218 0.0735656 0.0738091 0.0740528 0.0742967
0.0745367 0.0745814 0.074626 0.0746706 0.0747152 0.07476 0.0756513 0.0765452 0.0774417 0.078341
0.0792406 0.0816031 0.0839697 0.0863319 0.08867 0.090995 0.0955966 0.100253 0.104751 0.109102
0.113346 0.121704 0.130024 0.138264 0.146329 0.154222 0.16197 0.169716 0.177459 0.185198
0.192934 0.19488 0.196827 0.198773 0.200719 0.20267 0.208455 0.21424 0.220024 0.225809
0.231593 0.239317 0.247047 0.254777 0.262507 0.270238 0.277953 0.285683 0.293413 0.301143
0.308874 0.316582 0.324311 0.332041 0.339772 0.347502 0.355204 0.362933 0.370663 0.378393
0.386123 0.393819 0.401548 0.409277 0.417006 0.424736 0.432426 0.440154 0.447883 0.455612
0.46334 0.471025 0.478753 0.48648 0.494208 0.501936 0.509616 0.517343 0.525069 0.532795
0.540522 0.548196 0.55592 0.563643 0.571368 0.579092 0 0.0012776 0.00255592 0.00383536
0.0051161 0.00639812 0.00829987 0.0102036 0.0121101 0.0140215 0.0159411 0.0169054 0.0178716 0.0188397
0.0198101 0.0207827 0.0217567 0.0227356 0.0237199 0.0247087 0.0257013 0.0266922 0.0276894 0.0286949
0.0296956 0.0307044 0.0307814 0.0308585 0.0309356 0.0310124 0.0310834 0.0320042 0.0329056 0.0337869
0.0346471 0.0355053 0.0359536 0.0363997 0.0368438 0.0372868 0.0377242 0.0381632 0.0385997 0.0390353
0.0394702 0.0398992 0.0403326 0.040766 0.0411997 0.0416337 0.0420681 0.0425041 0.0429392 0.0433751
0.0438121 0.0442507 0.0451284 0.0460145 0.0469071 0.0478074 0.0487331 0.0496799 0.0506194 0.0515515
0.0524913 0.0534407 0.0541299 0.0548241 0.0555203 0.0562181 0.0572615 0.0574692 0.0576771 0.0578851
0.0580934 0.0583018 0.0592866 0.0602705 0.0612547 0.0622388 0.0632229 0.0652263 0.0672168 0.0691993
0.0711913 0.0731789 0.075142 0.0771311 0.0791371 0.0811474 0.0831633 0.0872055 0.0912575 0.0952684
0.0992294 0.103188 0.105533 0.107882 0.110238 0.112593 0.115336 0.120875 0.126377 0.131842
0.137271 0.142663 0.150377 0.158094 0.165807 0.173518 0.181227 0.188925 0.196628 0.20433
0.212031 0.21973 0.227421 0.235117 0.242812 0.250506 0.258198 0.265885 0.273575 0.281264
0.288953 0.296641 0.304324 0.312009 0.319694 0.327377 0.33506 0.34274 0.350421 0.358101
0.365781 0.37346 0.381136 0.388813 0.396489 0.404165 0.41184 0.419513 0.427187 0.434859
0.442531 0.450203 0.457873 0.465542 0.473212 0.48088 0.488549 0.496216 0.503882 0.511548
0.519213 0.526878 0.534541 0.542204 0.549866 0.557529 0.56519 0 0.00127417 0.00254896
0.0038242 0.00510068 0.00637839 0.00827445 0.0101726 0.0120732 0.0139767 0.0158843 0.0177939 0.0197087
0.0216284 0.0235528 0.0254852 0.0264562 0.0274243 0.0283875 0.0293458 0.0299513 0.0309724 0.031986
0.0329891 0.033982 0.0349632 0.0358726 0.0367786 0.0376805 0.0385795 0.0394693 0.0403602 0.0412494
0.0421375 0.0430245 0.0439107 0.0456876 0.0474818 0.0492903 0.0511085 0.0529437 0.0537909 0.0546393
0.0554898 0.0563423 0.0576519 0.0585626 0.0594752 0.0603898 0.0613063 0.0622243 0.0641005 0.0659794
0.0678611 0.0697454 0.0716316 0.0735293 0.0754171 0.0773061 0.0791966 0.0810882 0.0848861 0.0886832
0.0924854 0.0962926 0.100116 0.107833 0.115555 0.123226 0.130851 0.13849 0.146143 0.153793
0.161442 0.16909 0.176736 0.184386 0.192033 0.199678 0.207322 0.214964 0.22261 0.230252
0.237894 0.245534 0.253173 0.260815 0.268455 0.276093 0.283731 0.291368 0.299007 0.306644
0.314281 0.321916 0.32955 0.337187 0.344822 0.352456 0.360089 0.367721 0.375356 0.382988
0.39062 0.398251 0.405881 0.413513 0.421144 0.428773 0.436402 0.44403 0.45166 0.459289
0.466916 0.474543 0.482169 0.489797 0.497423 0.505049 0.512674 0.520297 0.527923 0.535547
0.54317 0.550793 0.558415 0 0.00127149 0.00254336 0.00381577 0.00508878 0.0063624 0.0101421
0.0139333 0.0177237 0.0215111 0.0253024 0.025783 0.0262623 0.0267408 0.0272185 0.0276389 0.0290392
0.0304342 0.031824 0.0332086 0.0345907 0.0364323 0.0382642 0.0400792 0.04189 0.0436957 0.0455071
0.0473158 0.0491256 0.0509438 0.0527735 0.0546095 0.056447 0.0582873 0.0601306 0.0619765 0.0656787