# vtk DataFile Version 2.0
sampleSurface
ASCII
DATASET POLYDATA
POINTS 2021 float
-0.500032 0 0.11501 -0.499951 3.38813e-21 0.0392727 -0.789037 8.47033e-21 0.120673 -0.500013 -1.35525e-20
0.193965 1.00003 0 0.0485099 1.00003 0 0.0478584 0.475202 0 0.0353615
0.250044 1.41878e-20 0.0305359 0.2506 -5.42101e-20 0.117067 0.251301 0 0.203885 0.364989
0 0.203772 1.75002 0 0.113255 1.75002 0 0.0564279 2.50001 6.89146e-18
0.059229 2.21354 0 0.250758 2.50001 0 0.252875 3.25001 -3.47927e-17 0.0598775
3.25001 -1.69407e-21 0.253888 4.00001 5.60566e-18 0.0599857 4 0 0.253986 4.75
-1.79088e-17 0.0599988 4.75 8.47033e-22 0.253998 5.5 -2.79246e-17 0.0599999 5.5 -4.23516e-22
0.253999 6.25 1.01187e-17 0.06 6.25 0 0.254 7 2.93732e-17 0.06
7 0 0.254 7.75 -2.65294e-17 0.06 7.75 0 0.254 8.5
1.8923e-17 0.06 8.5 0 0.254 9.25 -2.88552e-17 0.06 9.25 -5.29396e-23
0.254 10 -2.64698e-23 0.254 10 0 0.06 -4.24997 0 0.0599042
-5 0 0.0599861 -5 0 0.253986 -4.24997 0 0.253912 -3.49995
0 0.0593815 -3.49994 0 0.253441 -2.74993 0 0.0570188 -2.74991 0
0.251316 -1.99991 0 0.0492276 -1.99987 0 0.242776 -1.24992 -1.69407e-21 0.03
-1.24985 1.23328e-17 0.222327 -1.24989 3.38813e-21 0.125756 -0.874924 2.08116e-17 0.03 -0.874929
0 0.122356 -0.124951 -8.47033e-22 0.03 -0.499941 0 0.03 -0.124922 -8.47033e-22
0.0385291 1.00021 0 0.231242 0.625368 0 0.203537 0.25004 -2.11758e-22 0.03
1.75003 0 0.247334 1.92873 1.69407e-21 0.441438 2.50001 0 0.447397 3.25
-1.69407e-21 0.447898 4 0 0.447986 4.75 0 0.447997 5.5 -4.23516e-22
0.447999 6.25 4.23516e-22 0.447999 7 0 0.448 7.75 -1.05879e-22 0.448
8.5 0 0.448 9.25 0 0.448 10 -2.64698e-23 0.448 -5
-8.47033e-22 0.447985 -4.24997 0 0.447919 -3.49993 0 0.4475 -2.74988 0
0.445609 -1.9998 6.77626e-21 0.437758 -1.24969 1.61411e-17 0.417681 -1.24976 -6.77626e-21 0.31973
-0.875161 7.70461e-18 0.216228 -0.875403 0 0.312476 -0.499924 -8.74138e-19 0.250039 -0.312433
0 0.250037 -0.312436 0 0.200025 -0.499924 0 0.200026 0.250062 3.38813e-21
0.24921 0.250039 -1.69407e-21 0.250046 0.250032 0 0.300069 0.437526 3.05948e-18 0.300066
0.625026 0 0.30005 1.00072 -8.23994e-18 0.326497 1.00196 0 0.423 1.75013
0 0.439575 1.75013 1.77877e-20 0.448245 1.00135 0 0.537141 1.00002 0
0.61834 1.74999 2.71051e-20 0.633055 2.49999 -3.38813e-21 0.641448 3.25 0 0.641907
4 -1.69407e-21 0.641985 4.75 -8.47033e-22 0.641996 5.5 -4.23516e-22 0.641998 6.25
0 0.641999 7 0 0.641999 7.75 0 0.642 8.5 5.29396e-23
0.642 9.25 -5.29396e-23 0.642 10 0 0.642 -5 0 0.641985
-4.24997 -1.69407e-21 0.641926 -3.49993 0 0.641557 -2.74988 0 0.639897 -1.99989
6.77626e-21 0.63382 -1.25099 2.55465e-18 0.614606 -1.25 -2.71051e-20 0.515981 -0.878244 0
0.50789 -0.875961 2.71051e-20 0.459694 -0.875609 0 0.410432 -0.498432 0 0.400603
-0.498071 -1.70762e-18 0.413126 -0.450805 0 0.413349 -0.45095 0 0.400955 0.250009
1.89735e-19 0.412703 0.25 2.71051e-20 0.425212 0.296872 1.00289e-18 0.425187 0.343754 -2.71051e-20
0.425153 0.343763 0 0.400146 0.250006 0 0.400175 1.00162 1.41488e-17 0.520353
-2 4.23516e-22 0.820145 -2.09502 -2.11758e-22 0.830091 -2 0 0.829497 -1.25123
0 0.813251 -1.25126 0 0.713737 -1.25101 6.77626e-21 0.62198 1.00059 0
0.714169 1.00094 0 0.809205 1.75018 0 0.82775 2.5 0 0.835521
3.25 0 0.835917 4 -1.69407e-21 0.835986 4.75 -8.47033e-22 0.835996 5.5
0 0.835998 6.25 0 0.835999 7 0 0.835999 7.75 0
0.836 8.5 0 0.836 9.25 0 0.836 10 0 0.836
-5 -8.47033e-22 0.835986 -4.24997 0 0.835935 -3.49995 0 0.835616 -2.74991
0 0.83419 -0.970118 0 0.703382 -0.87455 0 0.699864 -0.874264 -2.71051e-20
0.649852 -0.874033 -2.71051e-20 0.599873 -0.49698 0 0.599585 -0.497345 -9.21572e-19 0.612046
-0.450014 0 0.611892 -0.44938 2.71051e-20 0.599454 -2.00002 0 0.84097 -1.84639
-3.38813e-21 1.02215 -1.25185 0 1.01276 -0.896512 -3.38813e-21 0.900668 -0.908183 6.77626e-21
0.801076 -0.904022 -1.86347e-20 1.00093 0.624925 0 0.799916 0.249931 0 0.799891
0.249978 0 0.899916 0.249997 0 0.999939 0.999987 0 0.999957 1.75061
-2.1684e-19 1.02409 2.50003 0 1.0296 3.25 -1.69407e-21 1.02993 4 0
1.02999 4.75 0 1.03 5.5 0 1.03 6.25 2.11758e-22 1.03
7 0 1.03 7.75 0 1.03 8.5 5.29396e-23 1.03 9.25
0 1.03 10 0 1.03 -5 0 1.02999 -4.24998 0
1.02994 -3.49996 -8.47033e-22 1.02968 -2.74996 0 1.02849 -2.00026 0 1.02458
-0.87482 0 0.799893 -0.87491 0 0.899919 -0.49993 0 0.799862 -0.499958
7.6233e-19 0.849889 -0.312476 0 0.849885 -0.312472 0 0.799853 -1.25001 8.04681e-21
1.19601 -0.499979 5.29396e-23 1.10737 -0.731886 2.11758e-22 1.19997 -0.499981 0 1.19997
-0.124987 0 0.999933 -0.477759 -5.29396e-23 0.999933 -0.487556 -1.45584e-22 1.09995 0.250008
0 1.19997 1 0 1.19997 1.7507 0 1.22203 2.50003 -1.35525e-20
1.22368 3.25 0 1.22394 4 0 1.22399 4.75 4.23516e-22 1.224
5.5 0 1.224 6.25 2.11758e-22 1.224 7 0 1.224 7.75
1.05879e-22 1.224 8.5 0 1.224 9.25 0 1.224 10 2.64698e-23
1.224 -5 4.23516e-22 1.22399 -4.24999 -4.23516e-22 1.22395 -3.49998 0 1.22374
-2.75001 0 1.22279 -2.00077 0 1.21965 -1.24997 4.23516e-22 1.19997 -0.499969
-5.29396e-23 0.999933 -0.874942 0 0.999936 -0.499979 -1.32349e-23 1.09995 -2.75001 0
1.36967 -3.18711 4.23516e-22 1.41751 -2.75001 4.23516e-22 1.4171 -2.00072 3.38813e-21 1.29692
-2.00065 0 1.41474 -1.25823 6.35275e-21 1.40014 -0.980416 0 1.39998 -0.499986
0 1.39998 0.250009 0 1.39998 1 0 1.39998 1.75054 0
1.41682 2.50002 -1.35525e-20 1.41776 3.25 0 1.41796 4 4.23516e-22 1.41799
4.75 0 1.418 5.5 0 1.418 6.25 0 1.418 7
0 1.418 7.75 0 1.418 8.5 0 1.418 9.25 0
1.418 10 0 1.418 -5 0 1.41799 -4.24999 0 1.41797
-3.49999 -4.23516e-22 1.41781 -1.24998 0 1.39998 -2.80392 1.32349e-23 1.61143 -2.75
-1.32349e-23 1.6114 -2.0003 0 1.60983 -1.25396 2.64698e-23 1.60004 -1.12789 2.64698e-23
1.59999 -0.49999 1.05879e-22 1.59999 0.250008 0 1.59999 1.00001 4.23516e-22 1.59999
1.75038 0 1.61122 2.50002 0 1.61184 3.25 -4.23516e-22 1.61197 4
-4.23516e-22 1.61199 4.75 0 1.612 5.5 0 1.612 6.25 0
1.612 7 0 1.612 7.75 5.29396e-23 1.612 8.5 2.64698e-23 1.612
9.25 -1.32349e-23 1.612 10 -1.32349e-23 1.612 -5 0 1.61199 -4.24999
0 1.61198 -3.49999 0 1.61187 -1.24999 0 1.59999 -2.75 -1.32349e-23
1.63714 -2.64195 -2.11758e-22 1.80559 -2.00012 -8.47033e-22 1.80492 -1.25741 0 1.80004
-1.19082 -7.94093e-23 1.8 -0.499992 1.05879e-22 1.79999 0.250006 2.11758e-22 1.79999 1
0 1.8 1.75023 0 1.80561 2.50001 3.38813e-21 1.80592 3.25 0
1.80599 4 0 1.806 4.75 2.11758e-22 1.806 5.5 0 1.806
6.25 0 1.806 7 0 1.806 7.75 0 1.806 8.5
2.64698e-23 1.806 9.25 0 1.806 10 0 1.806 -5 0
1.806 -4.25 -2.11758e-22 1.80599 -3.49999 0 1.80594 -2.75 -1.05879e-22 1.8057
-1.24999 0 1.8 -2 -4.76456e-22 1.98532 -1.20969 -1.65436e-23 2 -0.499993
0 2 0.250006 0 2 1 0 2 1.75 0
2 2.5 0 2 3.25 0 2 4 0 2
4.75 -1.05879e-22 2 5.5 0 2 6.25 0 2 7
5.29396e-23 2 7.75 0 2 8.5 0 2 9.25 0
2 10 -1.32349e-23 2 -5 2.21817e-18 2 -4.25 1.05879e-22 2
-3.49999 0 2 -2.74999 0 2 -1.99999 -5.29396e-23 2 -1.24999
3.30872e-24 2 0.0956945 -5.42101e-20 0.203879 0.0632748 0 0.203876 0.0625511 0
0.250042 -0.403589 6.77626e-21 0.40138 -0.405779 7.7927e-19 0.38799 -0.406379 -6.77626e-21 0.375196
-0.499567 -1.35525e-20 0.375265 0.250006 -6.50521e-19 0.375144 0.156247 0 0.375155 0.156237
9.41901e-19 0.400212 0.203129 0 0.400201 0.249796 0 0.59991 0.249852 -1.0842e-19
0.587433 0.202953 0 0.587417 0.202888 6.50521e-19 0.599901 0.625121 -6.77626e-21 0.499953
0.717439 6.77626e-21 0.504955 0.625095 6.77626e-21 0.475379 0.343596 1.0842e-19 0.599918 0.343639
0 0.574939 0.296781 0 0.574964 0.249926 0 0.574977 0.62499 -4.2826e-18
0.549927 0.624917 4.55365e-18 0.599925 0.203133 0 0.412725 -0.449046 0 0.587135
-0.496581 5.42101e-20 0.587161 0.625036 -9.32414e-18 0.40006 0.625067 1.13164e-18 0.450032 0.249704
0 0.624881 0.155871 0 0.599866 0.155839 1.95156e-18 0.624853 0.249886 1.35525e-20
0.749873 0.062411 0 0.749846 0.0624478 -4.26227e-18 0.799869 -0.312472 0 0.749804
-0.499901 -3.38813e-21 0.749824 -0.691227 0 0.30453 -0.499912 3.02221e-18 0.300065 -0.875784
-3.11708e-18 0.361353 -0.592465 -2.71051e-20 0.40036 -0.499854 0 0.350135 -0.687111 1.35525e-20
0.350117 -0.68656 -2.71051e-20 0.40021 0.437526 -1.35525e-20 0.400108 0.437522 6.77626e-21 0.350086
0.250015 -2.51399e-18 0.35011 0.625027 3.38813e-21 0.350064 -0.592287 0 0.425286 -0.498048
0 0.425444 -0.873902 5.42101e-18 0.54992 -0.496663 0 0.574746 -0.591532 0
0.574798 -0.591729 0 0.599734 -0.149108 0 0.406489 -0.149477 -5.29396e-23 0.403592
-0.149678 0 0.406489 -0.451876 -2.1684e-18 0.499977 -0.451579 0 0.487563 -0.498366
0 0.487552 -0.498515 -1.0842e-19 0.499993 0.437553 0 0.450075 0.437532 -6.07153e-18
0.425113 0.254621 -1.25361e-19 0.496697 0.26485 -5.42101e-20 0.498023 0.264831 0 0.496529
0.254636 -2.30393e-19 0.49668 0.570241 0 0.499932 0.437665 -2.71051e-20 0.474991 0.437859
-2.71051e-20 0.49988 0.437372 -1.0842e-19 0.599915 0.249722 3.25261e-19 0.649874 0.43732 -5.42101e-20
0.649899 0.624872 0 0.649914 0.624883 -3.95734e-18 0.699913 0.43734 6.83047e-18 0.699894
0.249817 0 0.699869 -0.592227 0 0.624743 -0.498071 -2.71051e-20 0.624658 -0.499769
6.77626e-21 0.69979 -0.687025 0 0.699824 -0.150854 -1.03677e-18 0.599678 -0.151059 -6.77626e-21
0.605522 -0.127339 6.77626e-21 0.605681 -0.127867 0 0.599582 -0.406139 -4.40457e-20 0.699754
-0.406113 0 0.674749 -0.499634 0 0.674774 -0.18433 -4.23516e-22 0.674527 -0.163626
-4.23516e-22 0.678958 -0.165125 0 0.674537 -0.171868 4.23516e-22 0.674524 -0.14924 3.34737e-19
0.400169 -0.125737 0 0.400165 -0.12551 0 0.393854 -0.149076 -2.11758e-22 0.393877
-0.499925 -2.61564e-18 0.325088 -0.406241 0 0.325087 -0.4062 0 0.300069 -0.124901
0 0.300062 -0.218633 -3.27294e-18 0.299673 -0.218596 1.35525e-20 0.324664 -0.124851 0
0.325085 -0.126061 7.86047e-19 0.406473 -0.0785222 1.30782e-18 0.400166 -0.126118 3.38813e-21 0.41275
-0.0785648 0 0.412729 0.240678 1.0842e-18 0.500153 0.252614 -2.1684e-19 0.498317 0.252386
1.0842e-19 0.496231 0.241035 0 0.496114 0.228892 -1.35525e-20 0.496204 0.228835 6.77626e-21
0.498715 0.229819 2.71051e-20 0.500074 0.25248 0 0.499935 0.240657 -1.6263e-19 0.500957
0.264863 0 0.500154 0.264689 0 0.500951 0.437443 0 0.549896 0.437406
[...]
POINT_DATA 2021
FIELD attributes 2
p 1 2021 float
1.83993 1.28641 2.27998 4.16536 0.0481995 0.0460102 -4.23846 -6.08674 -7.72575 -6.12911 -4.30363
0.493689 0.45995 0.110903 0.327179 0.175074 0.0167665 0.038041 0.0239397 0.0298307 0.0209351
0.024435 0.00893992 0.0118524 0.00367175 0.00575098 0.00470224 0.00615216 0.00556718 0.00684036 0.0039006
0.00515598 0.00209497 0.00413606 0 0 0.612644 0.608194 0.60805 0.612367 0.633465
0.632593 0.702974 0.699934 0.921571 0.918997 1.61622 1.74175 1.75028 2.17713 2.41058
-4.18352 1.21858 -4.23816 0.66131 -0.136202 -6.07658 0.573269 0.465508 0.204401 0.0451434
0.0244058 0.0192317 0.00793665 0.00188751 0.00226982 0.00350952 0.00217822 0.00344177 0 0.607634
0.611621 0.630241 0.691157 0.899994 1.94809 2.01136 3.06487 3.81969 7.07776 -3.69975
-1.35045 4.38402 -5.60264 -5.59311 -2.17138 0.214398 0.762706 1.06904 0.96379 0.547129
0.543277 0.738596 0.736946 0.461013 0.188001 0.0396347 0.0185831 0.0165284 0.00784211 0.00243592
0.00290896 0.00450341 0.00372091 0.00509164 0 0.606967 0.610464 0.626694 0.678831 0.862173
1.86228 2.13795 5.14839 5.58661 4.8068 32.4456 36.3584 51.883 45.8065 4.31588
4.4662 3.04643 3.06197 2.33977 3.71197 0.738949 0.810032 0.789286 0.807415 1.42464
1.81157 1.85853 0.896465 0.444109 0.360556 0.133519 0.0180112 0.00747971 0.0119697 0.00746797
0.00341345 0.00415899 0.00599116 0.00597311 0.00578603 0 0.60612 0.609024 0.622362 0.66434
3.31689 3.82859 4.75173 4.80619 34.7149 33.1038 45.2161 51.3095 0.803626 0.787843
0.961068 1.76168 2.70237 1.1825 -0.0212309 -5.01027 -5.34909 -2.75655 -0.250132 0.19124
0.0724327 -0.00655616 -0.00753524 0.00331175 0.00285834 0.000110208 0.00112169 0.00328117 0.00378585 0.00314438
0 0.605181 0.607446 0.617644 0.648707 0.742988 2.82654 1.79316 5.50233 3.52875
0.905375 -0.1315 0.708835 0.369855 0.341434 0.17942 -1.6331 0.775047 0.341861 -0.966228
-0.409447 0.0971902 0.0648198 -0.00377326 -0.00769822 0.0038916 0.00432693 0.00111434 0.00137355 0.00317904
0.00367164 0.00276966 0 0.604246 0.60588 0.612905 0.63284 0.679381 0.703376 0.926666
1.20101 0.385119 0.621736 0.612568 0.61815 0.659016 0.627956 0.574213 0.396113 0.0797592
-0.559103 -0.390161 0.0442274 0.0596257 -0.00530772 -0.0128792 -5.78289e-05 0.00183771 -0.00113553 -0.000959017
0.000972102 0.00180835 0.00127244 0 0.60341 0.604466 0.608573 0.573616 0.6064 0.606502
0.592656 0.501461 0.434467 0.092453 -0.431319 -0.359514 -0.00359862 0.0486691 -0.00856951 -0.0170008
-0.00259695 0.000804285 -0.00174174 -0.00157843 0.000363981 0.00138448 0.00109718 0 0.602754 0.603326
0.605093 0.500975 0.605527 0.595266 0.572224 0.462982 0.433241 0.098758 -0.362296 -0.342578
-0.0302746 0.0438742 -0.00846955 -0.018189 -0.00363975 0.00041373 -0.00190705 -0.0017876 8.86518e-05 0.00116036
0.00101209 0 0.602333 0.602568 0.602787 0.599145 0.46189 0.565925 0.430625 0.1008
-0.340455 -0.337083 -0.0385324 0.0425185 -0.0083321 -0.018644 -0.0041363 0.000174246 -0.00200588 -0.00184896
2.60151e-05 0.00111784 0.00101779 0.000251749 0.602185 0.602296 0.601956 0.59663 0.565413 0.449355
-10.2471 -11.1046 -11.6607 70.1505 59.6385 43.4529 29.4772 2.73495 1.98925 4.57849
4.73669 2.51172 2.41905 3.62244 3.43613 1.71806 1.4778 1.85223 1.91851 2.21621
1.59177 1.7961 1.80278 1.49631 5.67811 56.7446 39.7989 1.774 1.99057 2.84851
3.17835 1.63739 -4.6809 -11.5761 -10.028 -2.2034 8.9437 6.90991 11.6905 4.70857
17.3901 20.6183 9.06029 10.4679 2.24887 1.30239 0.942484 1.52095 19.6804 36.8474
5.64659 39.9457 20.4788 18.9985 -60.0048 -59.7752 -60.0206 68.5923 68.4613 47.6387
44.8994 3.0796 2.75962 -6.84127 -1.21782 -1.36545 -6.89179 2.21288 3.53288 3.4033
2.10988 1.45882 1.35824 1.29904 0.75564 0.523265 -1.50253 17.2075 28.5136 13.7458
7.42564 -59.4703 -59.2801 -64.1278 -63.7535 14.7835 20.1763 18.9889 -44.4123 -41.5526
-43.3211 -43.7741 -59.4854 -57.9561 -58.2546 -58.9816 16.3872 15.462 11.6419 -29.762
-28.8707 -46.6667 -37.4633 -59.3664 -43.8026 -59.1804 -45.7957 9.26114 2.62687 8.90992
10.1366 7.40472 7.67262 7.96815 2.81755 9.39372 -0.658661 -0.876623 2.84609 2.51865
3.45205 3.5503 47.8994 68.52 -63.3383 -58.7875 4.80337 9.43911 -54.0487 -54.5023
-61.9949 3.07328 4.5662 5.00551 5.17907 -31.1537 -40.6273 -46.1757 -27.6511 64.3736
60.7226 41.6139 41.39 -42.5105 -56.8127 -11.1627 -7.44796 -0.11307 -23.2818 -42.87
43.219 44.5981 64.6887 66.805 -55.9512 -53.7382 -53.8999 0.146627 -10.0886 -13.8706
-12.443 -23.1344 -27.252 -63.2534 44.0817 21.8684 22.1961 11.6896 11.9827 12.2222
13.1522 22.1069 44.6732 10.9022 12.5558 11.9701 13.2944 -61.6904 -61.5628 -59.6345
-59.6068 -60.6553 -60.5257 -60.348 45.8335 66.834 -61.5389 -60.6103 -61.5276 -61.4981
-25.849 -30.6731 -28.1183 -9.2311 0.995242 -2.76716 -49.0757 -48.4219 -59.4561 -8.41611
2.92561 2.76497 -8.65067 -60.6956 -57.8654 -50.0017 -7.62349 -5.31762 0.525401 4.72701
-6.79846 -5.96285 -17.3645 -37.1011 -40.8208 -36.0956 -52.6958 -53.6878 -53.6403 -5.21684
-17.1419 -17.8009 -5.87079 -57.2392 -52.198 -57.5466 -4.34724 -9.34497 -15.8709 -6.60047
67.8046 47.0845 -51.8304 -52.3103 -57.1542 -57.0654 -55.9278 -51.1049 -58.0648 -53.878
-55.989 -60.5127 -60.8184 -60.9026 -26.5102 -69.7826 -87.8021 -92.0609 -91.5296 -90.9054
-39.4333 -51.5075 -55.8012 -49.0325 -51.8655 -100.745 -101.98 -73.2517 -35.8635 -59.3946
-60.0411 -60.5692 -58.0926 -59.3296 -60.2748 -59.9949 -60.092 8.24292 8.18202 10.3871
-56.8725 -56.7719 -57.0586 -55.865 -56.1209 -55.8857 -56.253 -54.1377 -54.1276 0.693092
0.123585 -1.05908 -0.165056 2.24483 2.70417 -0.156429 -55.9789 -57.1056 -57.4008 5.3091
5.97541 2.06366 0.198364 2.6401 -25.3861 -32.1101 -30.6957 -24.1578 -53.2993 -54.756
-60.4797 -59.5418 -54.0353 -55.8413 -35.383 -39.8011 -39.9867 -33.9401 -48.8095 -53.1515
-50.9567 -50.421 -50.5277 124.732 132.679 147.747 147.824 -59.6026 -59.1516 -59.6805
-60.1734 -60.848 8.6517 6.97201 8.44595 9.67062 -9.24766 -4.25461 -6.57355 -8.88282
-11.2588 -34.9904 -33.8753 -23.2198 -24.523 -28.8261 -34.9361 -16.8065 -17.8573 32.3182
42.6863 53.3205 38.5354 23.5262 23.7595 37.032 28.5658 0.91928 1.08235 2.16516
33.5854 24.4518 16.3192 21.32 1.22981 2.51243 2.83555 2.68506 2.06765 4.1695
4.17478 2.38743 -7.70858 -6.09763 -0.856854 -9.14853 14.898 9.2832 10.952 -57.8708
-62.2803 -62.4359 -58.0935 -75.8731 -74.8009 -77.5798 -46.6245 -9.53158 -16.1891 -22.7398
-56.911 -53.5628 -56.7473 -57.8434 -76.2325 -75.9454 -60.3937 -61.6768 -47.5186 -48.7252
-52.6133 -51.0397 1.49947 1.53063 -2.36462 4.76578 4.37497 3.12644 3.82818 4.79083
4.92978 -58.9785 -56.7417 -63.7725 -63.3099 78.6952 93.7193 85.2788 111.844 106.114
88.5944 89.9537 161.735 164.026 153.159 121.447 98.2693 104.264 97.1275 117.421
-11.0505 -24.665 -28.0495 -4.05248 -24.197 -52.8168 -40.5968 -4.69513 94.9714 102.333
87.6863 79.1987 97.3238 89.1516 108.571 149.214 158.729 167.828 165.515 107.043
103.411 160.239 -34.6692 -7.73073 -39.589 -31.3349 -52.6077 140.333 140.171 115.706
110.719 110.265 115.555 139.643 139.002 108.098 167.188 170.759 172.013 172.285
173.797 186.729 186.907 174.891 173.352 -28.0876 -36.6721 -28.1441 -57.4683 -49.3728
-38.2576 -36.7985 -35.2435 -20.8382 6.26412 1.94718 4.56502 173.48 175.434 187.281
172.508 186.622 187.255 175.35 172.518 179.921 182.053 170.455 169.23 180.216
168.181 171.415 182.732 -53.2669 -36.5703 -35.3466 -56.1344 -56.8338 -56.6145 -34.5365
-44.7935 -34.0902 -33.9433 -44.0335 -44.0562 -3.96531 -9.05481 -23.5463 -23.2806 -28.1748
-39.6437 -27.6883 -26.9444 -38.8667 -15.4998 -11.9463 -14.6171 115.589 140.296 138.396
139.265 114.918 109.579 170.376 170.242 170.804 168.044 136.755 108.74 113.891
137.464 -58.2207 -52.332 -50.5374 -50.2398 -55.7402 -43.8185 89.5668 92.7198 77.8686
-8.39625 -0.044812 0.381883 -12.7855 57.7252 59.7997 72.9778 75.7811 -57.9357 -57.3982
-57.8582 -58.1093 -59.4467 -59.8746 -59.9711 -59.9135 -59.1503 -58.8352 -58.1402 -58.8433
-117.741 -95.3511 -64.8288 -87.4278 -89.5052 -91.1439 -91.1366 -76.3558 -81.187 -94.8754
-72.7482 -87.764 -135.896 -139.592 -131.517 -98.5511 -99.3708 -57.924 -57.0342 -57.4012
-59.1462 -59.2419 -56.879 -56.4769 10.2701 11.4674 13.908 17.5191 13.7878 -49.0143
-47.5055 -40.8645 -41.9542 -40.8726 -40.505 -40.4734 -40.3425 11.0306 10.5347 14.6879
5.65884 5.35439 6.62463 7.17814 7.32914 6.18499 5.19895 5.89304 9.44205 12.152
10.5765 -0.35285 -2.25297 -4.17117 4.67685 3.69724 2.60656 4.4419 4.83096 -52.0373
-52.3907 -56.13 -56.061 -47.3001 -47.8545 13.8765 16.8813 18.5498 -42.0779 -46.15
-46.5136 -41.5915 -40.3323 9.438 9.19464 9.23441 7.82786 4.97373 -8.0336 -6.82569
3.48312 3.65102 3.74704 -47.1474 -46.9347 146.072 148.089 140.418 136.505 112.572
117.754 125.179 120.487 184.576 185.844 182.139 178.381 -59.2833 -59.3547 -56.2583
-56.0689 169.863 183.555 185.23 173.197 174.615 186.707 171.274 182.376 169.91
179.583 -15.4878 -17.6564 -21.4464 -25.076 -23.9098 -21.2742 -1.7196 2.92364 1.79936
-2.74932 -7.21423 -6.04103 -1.33414 -9.2623 -10.1294 -15.5155 -18.4252 -8.96178 -9.55093
-25.466 -20.8935 -9.40589 -0.458062 -2.91826 6.90393 -1.64324 6.8949 7.80001 1.39946
1.92683 2.57842 2.51695 7.76195 6.10563 3.54522 5.37096 -18.5118 -14.8275 -25.4881
-19.8708 -58.7079 -59.4117 -60.0399 -60.275 2.32524 2.55557 4.47779 4.74916 3.89677
4.40939 -15.5845 -41.676 -58.7779 -67.2051 -54.8769 -33.2774 -60.3785 9.73745 9.18918
9.21506 -4.34706 -1.39977 10.25 15.5384 6.9013 22.7581 19.4978 9.32031 0.232848
5.28346 6.7256 11.414 9.71861 4.10006 -54.5878 -45.3902 -48.6716 -9.83773 -39.6389
-20.5671 -55.3103 -76.7861 107.892 91.9461 105.58 107.585 112.111 111.108 172.943
172.068 173.325 172.662 171.311 185.995 185.995 185.207 -61.2783 -61.474 174.799
-59.1516 -59.1513 -59.7473 -59.8137 -59.7103 -57.7883 -152.581 -139.872 -139.746 -135.872
-160 -139.641 -135.646 -135.967 -122.404 -118.023 -82.8456 -75.249 -75.6665 -73.0377
-122.408 -123.955 -59.4937 -58.7927 -57.8844 -59.7522 12.4776 9.61036 11.3942 8.68759
11.9096 12.998 13.538 15.0931 15.7299 -55.4313 -54.2455 -56.3098 -54.1433 -50.8166
-50.5835 -50.5251 -53.704 -6.88739 -1.82264 -2.45596 -5.7296 7.16485 6.9968 4.93057
4.60205 5.95931 7.46037 6.98998 5.2883 -0.0033788 5.81414 4.9059 4.87107 8.86726
10.9154 9.55591 12.4593 11.8618 -54.1306 -55.2271 -55.6311 -55.7469 -56.0563 -56.1158
-55.5839 -49.201 -51.3068 -51.323 -51.5541 -49.6629 -49.4782 -67.2507 -67.5278 -52.9411
-54.2159 -71.3359 -63.1581 -64.601 -108.303 -111.844 -118.907 -72.7423 -90.0424 -97.4251
-73.7528 -90.9806 128.276 113.094 148.101 151.366 -57.8694 -56.9572 -58.26 -58.3405
-56.2203 144.196 168.144 146.41 -43.123 -41.9468 -42.5262 -43.6592 -43.6054 -43.6458
-43.518 -41.2655 -9.07868 -10.5933 -12.158 -11.1889 -13.9992 -16.1992 -18.1241 -16.1265
-17.0326 75.8663 86.8954 -50.1268 54.0543 77.9948 66.069 74.77 60.2738 12.6339
9.60058 44.7127 35.7268 5.37362 6.02298 1.50537 2.85155 2.62226 4.85183 3.86042
4.22664 4.63765 5.09561 -50.1516 -49.5207 -49.9666 -50.9696 -2.77555 -2.7416 -3.19692
0.258696 3.77421 3.08653 5.48699 4.69888 -49.1468 -48.6979 -47.9158 137.815 135.825
171.208 184.756 189.045 189.334 186.849 185.33 -59.8946 -59.5481 -59.7783 -59.3811
-56.5457 -40.1794 -41.3351 -41.4368 -40.2717 -40.4128 -42.3431 -58.697 -58.7324 -59.3258
-59.8315 -59.7213 -59.6912 -59.986 -59.5647 -57.5155 -104.457 -101.473 -137.977 -114.172
-137.224 -125.108 -126.692 -136.698 -58.8429 -59.88 -57.6301 -56.7365 16.0743 14.3787
13.8332 15.3219 14.448 15.3746 -29.3829 -28.6179 -22.806 -22.457 -34.9729 -34.9557
-40.2853 -40.2207 -47.8566 -47.8774 -38.7136 -49.5258 -49.0435 -7.17032 -2.36145 -11.7868
-0.459945 0.745416 6.5508 6.30802 6.6353 3.11346 8.21201 5.90762 6.88663 7.29555
8.02388 8.08037 8.12357 9.75729 9.46857 0.837055 9.44977 11.2617 12.2057 0.5907
-0.110434 -0.411313 0.541251 -57.6035 -57.0537 -50.0279 -56.1981 -40.1407 -39.9763 -35.6547
-40.3352 -41.396 -46.3095 -48.0351 -46.607 -45.9616 -46.5776 -40.6634 -48.6288 -42.9404
0.899587 -44.5767 -45.0789 140.493 131.208 128.924 128.792 129.176 113.532 106.039
188.634 188.13 187.092 -53.4268 -53.7439 5.48007 6.05736 6.84445 -20.7844 -22.0211
186.291 187.081 180.632 183.604 182.217 181.851 -29.7878 -26.0388 3.85575 0.190871
1.5868 3.98669 -15.4981 -4.92665 -2.13787 -4.94972 -11.033 -4.72768 80.6076 56.4078
61.2847 21.049 21.5509 68.0549 110.78 9.14459 6.01937 -3.594 -3.86984 5.78276
6.47804 6.67107 5.23972 5.54953 25.7312 18.0021 2.68618 21.7843 -3.82801 1.67554
6.64879 6.53755 68.2393 110.41 -54.0418 -56.7701 20.0139 90.5378 108.196 102.468
95.2317 110.36 111.108 128.052 135.885 144.517 -59.6837 80.4898 72.4056 49.1845
18.2625 24.0202 22.1515 -62.7908 -59.5403 -59.537 -59.5394 -57.0991 -57.0282 -61.9496
-57.2697 -61.8179 -62.5066 22.4347 -7.58585 4.46893 9.01421 9.44094 -3.88904 -3.98151
-5.16723 -56.004 -51.3202 -2.14441 1.57054 1.747 -57.7882 -57.02 -56.4127 7.72743
7.37693 3.10191 -56.573 44.4477 48.4475 -68.4235 -60.5817 16.1223 13.6816 6.25131
4.72866 2.82306 5.69016 4.54321 -53.8964 -54.0879 -51.007 -50.3471 -58.8368 -51.4766
-50.2434 -56.5375 -56.8029 -56.7382 -56.3226 -57.39 -57.063 -56.814 -56.5861 2.16648
-50.2512 -54.1352 -53.8925 100.181 128.682 144.376 154.844 167.891 162.668 160.463
148.463 188.209 -55.7976 -56.9986 -51.9476 -2.30825 -5.01567 2.32162 -44.1194 -44.1326
-44.4907 -44.8273 -50.5662 -42.0963 -42.8114 -41.1361 -40.7748 -41.8293 33.0479 24.889
-98.6313 -106.074 -105.709 -106.144 -106.394 -76.1122 -98.9663 -76.1153 15.2037 18.3823
-11.655 10.0951 9.26814 -6.88216 -8.73317 2.42045 0.135066 -0.906625 -2.17685 -3.96868
-4.77618 -3.13888 1.60397 1.62935 -3.03541 0.0966842 1.74746 -0.559454 -2.18217 15.3776
19.3341 -47.0796 3.57663 9.72581 6.80016 12.6609 5.41385 7.97812 10.5957 12.0057
2.0523 1.96923 4.64822 4.16763 -4.57047 -6.61241 -9.03712 -8.93679 2.59925 0.394112
3.17825 8.20555 13.9793 15.1639 6.89134 4.21186 1.56656 1.28625 5.76804 8.89573
9.39568 10.072 9.29016 4.24925 -4.66891 4.12943 -4.01148 1.49891 -4.66993 1.01006
9.44778 6.76256 10.8599 5.25207 8.14913 10.0894 9.44616 9.14547 6.2809 7.19557
7.74313 8.03072 6.15521 6.07016 6.0635 4.64094 -7.68316 -11.468 -9.44446 4.38797
4.19555 6.45904 4.0396 -11.2654 -12.7785 -0.311795 5.63415 4.39782 -3.04176 4.22251
-140.129 -141.001 -141.129 11.9497 -56.6331 -53.7043 -53.6059 3.61762 7.41469 4.3615
6.66438 11.6252 -56.6998 -56.6806 -54.836 -53.4466 -56.3463 -55.2938 -55.2761 -63.1629
-104.606 -105.777 -102.621 -106.398 -43.0809 -43.9346 -41.1755 -40.7359 -41.0028 -40.7462
-14.3101 -14.3694 -16.348 -49.8438 -49.5988 -49.3603 2.92185 -0.86993 3.15581 2.84376
-49.1743 -49.6337 -49.7305 141.234 150.698 -59.24 -53.4163 15.4165 16.5225 9.09528
5.87217 8.6224 14.4802 3.73028 3.019 4.25233 3.35074 -52.3243 -58.6691 -58.4511
-57.2866 6.39012 13.7755 9.32527 2.43294 2.63554 8.44094 7.25862 7.83759 7.05919
8.6482 10.8598 8.4481 4.27275 7.14761 6.7514 -52.107 -45.0055 -42.75 93.7145
83.474 86.771 70.5494 76.223 -5.66021 -3.69998 -0.598636 -2.58712 7.05304 7.63084
7.21741 7.47269 7.48049 6.92563 6.10583 118.463 108.095 96.1357 -76.0393 -59.3187
-58.0324 -56.7591 -56.6881 -56.3083 -56.333 163.61 139.959 162.054 162.2 12.161
10.1233 14.0713 14.9466 6.79874 8.61977 7.0412 6.48921 5.66507 1.6815 -3.63436
4.15171 4.7276 5.17075 2.78963 5.36668 13.0354 7.58466 -15.7339 13.9015 11.1246
4.94203 8.04434 14.703 7.90071 -15.4855 -16.3534 -14.35 -5.35707 -7.64961 -16.1192
5.79851 3.84178 -17.1164 -18.4193 4.23007 2.00289 -3.49006 -4.85371 -54.1745 -40.193
16.1058 0.414994 -1.21682 -1.53563 4.79078 4.39469 5.30294 4.85531 4.80286 4.33368
-1.51194 4.78177 5.4864 -2.23683 4.25481 3.0928 5.80533 5.33454 4.85079 108.716
89.8095 123.927 125.81 3.33261 2.98552 1.13929 -54.2731 3.24775 4.61608 4.3387
-10.583 -13.3947 -1.46132 4.80264 5.52685 4.6067 8.15018 3.86447 6.75863 1.97101
35.7658 -51.5475 -57.2083 -56.7871 -56.6756 -56.7936 -4.35025 -5.88477 -14.8279 -14.6999
-14.7196 -4.59268 6.26729 1.3395 3.6852 4.29967 0.195745 0.287348 -1.98161 -2.57819
-13.4347 -7.4635 -6.5415 -13.7956 -6.82988 -14.9455 3.39784 -13.0616 -14.6611 -4.45276
-0.296385 5.1112 5.14839 4.53884 7.23279 -1.59027 5.32615 -4.15059 -2.40919 3.09617
-2.63645 5.70499 3.31429 -10.8063 7.46119 -1.96188 4.97951 0.127115 0.53743 3.85415
4.09958 3.39395 4.04981 1.13619 6.54723 7.42064 3.69734 4.61632 -0.553309 1.7841
9.44639 4.90325 -1.19446 -1.59961 1.41678 172.997 176.863 176.522 181.346 169.549
168.595 173.166 179.873 180.879 68.3169 72.5604 53.6179 -59.1438 -35.5574 -32.1582
-29.5915 -22.5328 -39.9069 -48.5925 -47.4108 -54.2808 -43.9646 100.245 155.465 162.875
156.01 148.294 -60.3894 -60.1559 -60.1418 -60.188 -59.2291 -60.1938 -58.2071 -58.4242
-58.324 9.56119 5.61348 171.427 -10.4522 186.066 190.291 189.457 -49.994 -44.6263
183.035 186.195 186.317 -15.3799 -46.4068 86.8734 -57.3363 -57.5336 -57.8595 -57.8711
-46.6596 189.364 3.84326 189.664 185.676 189.235 8.07158 -59.9312 109.776 109.097
-58.8814 2.88181 -54.4754 -56.103 -54.6296 -141.36 140.32 -57.0339 158.899 -54.7955
-106.449 -106.394 75.9121 6.15592 1.15418 168.684 165.3 -13.793 139.915 191.186
190.089 185.671 189.417 190.915 189.895 172.915 191.259 186.879 190.047 191.296
0.612659 0.6082 0.633454 0.702108 0.912692 1.59707 2.14922 -4.11233 1.20747 0.0132673
-4.13467 -5.91421 0.404167 0.0894475 0.0122565 0.0239879 0.0215565 0.00950402 0.00416429 0.0051213
0.0058694 0.00406719 0.00208406 0.0005015 -51.3052 -48.5234 -116.947 -117.432 -41.7396 -42.3068
-43.4512 -41.5604 -42.1518 -43.2692 -44.3169 -40.9052 -97.508 -76.9066 -42.8529 -40.7632
-76.3401 -42.7189 -46.6956 -47.8587 -45.6731 -91.6672 -101.369 -113.456 -105.776 -105.689

U 3 2021 float
20.014 -0.0450975 -0.214967 20.0513 -0.0299952 -0.0731789 19.9336 -0.00614129 -0.0969711 19.9444 -0.0549945
-0.608169 20.016 -0.0535947 0.040834 20.0163 -0.0535004 0.0408609 20.1688 -0.0712904 0.0592431
20.2344 -0.0789473 0.0676816 20.2803 -0.082785 0.156834 20.2815 -0.0991013 0.271024 20.2026
-0.101313 0.21525 19.9607 -0.0427822 0.0206769 19.9969 -0.0489816 0.0187672 20.0052 -0.0474454
0.00763458 19.8747 -0.0232513 0.0193109 19.8743 -0.0202204 0.0156823 20.0079 -0.0472719 0.00281022
19.8772 -0.0187601 0.0111092 20.0066 -0.0466661 0.00166904 19.8764 -0.0173657 0.0102115 20.0052
-0.046046 0.00130086 19.8753 -0.0160852 0.00996018 20.004 -0.0453468 0.00111269 19.8743 -0.0148645
0.00977677 20.0029 -0.0446718 0.000992149 19.8734 -0.0137684 0.0096364 20.0016 -0.0440157 0.000914974
19.8724 -0.012764 0.00955081 20.0002 -0.043369 0.000859783 19.8713 -0.0118563 0.00947117 19.9988
-0.0427495 0.000840601 19.8704 -0.0110172 0.00948059 19.9973 -0.042064 0.000755474 19.8694 -0.0101463
0.00927909 19.869 -0.0097113 0.00901908 19.9971 -0.0417773 0.000666721 19.9996 -0.00033825 3.06362e-05
20 0 0 20 0 0 19.9996 -0.000337398 7.66784e-05 19.9983
-0.000786151 9.2499e-05 19.9983 -0.000792694 0.000273563 19.9942 -0.00154156 0.00035985 19.9941 -0.00150423
0.000981018 19.9789 -0.00277115 0.000309188 19.9796 -0.00308171 0.00348688 19.9483 -0.00571375 -0.00927824
19.9374 -0.00644995 -0.00894282 19.9405 0.00195029 -0.0148417 19.9316 -0.00515835 -0.0299572 19.9097
0.00542874 -0.0618867 20.2396 -0.0682411 0.00396904 20.0559 -0.0281465 -0.0558129 20.2418 -0.0673183
0.00790926 19.9393 -0.0805387 0.0330933 20.0222 -0.104684 0.0871415 20.2341 -0.0789228 0.0671292
19.8754 -0.0281541 0.0251809 19.3275 0.115385 0.0218087 19.358 0.11281 0.0218348 19.3864
0.107447 0.0207793 19.4074 0.103267 0.0207495 19.4256 0.0995264 0.0207327 19.4425 0.0960447
0.020477 19.4584 0.0927486 0.0201329 19.4731 0.0896252 0.0197808 19.487 0.086622 0.0193989
19.4998 0.0838115 0.0190617 19.5142 0.0809368 0.0185458 19.5227 0.0793705 0.0181589 20
0 0 19.9996 -0.000337181 0.00013403 19.9985 -0.000787898 0.000481143 19.9945 -0.00150459
0.00168696 19.98 -0.00319315 0.00588598 19.9195 -0.00873271 0.00906453 19.92 -0.00808206 -0.000779411
19.8532 -0.0161838 -0.0977374 19.7956 -0.0199048 -0.0717125 19.9657 -0.0495578 -1.02465 20.453
-0.0650673 -0.918097 20.2295 -0.0522373 -0.495323 19.9393 -0.0548702 -0.637758 20.2924 -0.137142
0.458043 20.2926 -0.13785 0.461461 20.0873 -0.210258 0.597854 19.9818 -0.203115 0.321005
19.8898 -0.165355 0.161207 19.7466 -0.0910407 0.0566526 18.8008 0.111924 0.123739 19.3179