# vtk DataFile Version 2.0
sampleSurface
ASCII
DATASET POLYDATA
POINTS 2021 float
-0.500032 0 0.11501 -0.499951 3.38813e-21 0.0392727 -0.789037 8.47033e-21 0.120673 -0.500013 -1.35525e-20
0.193965 1.00003 0 0.0485099 1.00003 0 0.0478584 0.475202 0 0.0353615
0.250044 1.41878e-20 0.0305359 0.2506 -5.42101e-20 0.117067 0.251301 0 0.203885 0.364989
0 0.203772 1.75002 0 0.113255 1.75002 0 0.0564279 2.50001 6.89146e-18
0.059229 2.21354 0 0.250758 2.50001 0 0.252875 3.25001 -3.47927e-17 0.0598775
3.25001 -1.69407e-21 0.253888 4.00001 5.60566e-18 0.0599857 4 0 0.253986 4.75
-1.79088e-17 0.0599988 4.75 8.47033e-22 0.253998 5.5 -2.79246e-17 0.0599999 5.5 -4.23516e-22
0.253999 6.25 1.01187e-17 0.06 6.25 0 0.254 7 2.93732e-17 0.06
7 0 0.254 7.75 -2.65294e-17 0.06 7.75 0 0.254 8.5
1.8923e-17 0.06 8.5 0 0.254 9.25 -2.88552e-17 0.06 9.25 -5.29396e-23
0.254 10 -2.64698e-23 0.254 10 0 0.06 -4.24997 0 0.0599042
-5 0 0.0599861 -5 0 0.253986 -4.24997 0 0.253912 -3.49995
0 0.0593815 -3.49994 0 0.253441 -2.74993 0 0.0570188 -2.74991 0
0.251316 -1.99991 0 0.0492276 -1.99987 0 0.242776 -1.24992 -1.69407e-21 0.03
-1.24985 1.23328e-17 0.222327 -1.24989 3.38813e-21 0.125756 -0.874924 2.08116e-17 0.03 -0.874929
0 0.122356 -0.124951 -8.47033e-22 0.03 -0.499941 0 0.03 -0.124922 -8.47033e-22
0.0385291 1.00021 0 0.231242 0.625368 0 0.203537 0.25004 -2.11758e-22 0.03
1.75003 0 0.247334 1.92873 1.69407e-21 0.441438 2.50001 0 0.447397 3.25
-1.69407e-21 0.447898 4 0 0.447986 4.75 0 0.447997 5.5 -4.23516e-22
0.447999 6.25 4.23516e-22 0.447999 7 0 0.448 7.75 -1.05879e-22 0.448
8.5 0 0.448 9.25 0 0.448 10 -2.64698e-23 0.448 -5
-8.47033e-22 0.447985 -4.24997 0 0.447919 -3.49993 0 0.4475 -2.74988 0
0.445609 -1.9998 6.77626e-21 0.437758 -1.24969 1.61411e-17 0.417681 -1.24976 -6.77626e-21 0.31973
-0.875161 7.70461e-18 0.216228 -0.875403 0 0.312476 -0.499924 -8.74138e-19 0.250039 -0.312433
0 0.250037 -0.312436 0 0.200025 -0.499924 0 0.200026 0.250062 3.38813e-21
0.24921 0.250039 -1.69407e-21 0.250046 0.250032 0 0.300069 0.437526 3.05948e-18 0.300066
0.625026 0 0.30005 1.00072 -8.23994e-18 0.326497 1.00196 0 0.423 1.75013
0 0.439575 1.75013 1.77877e-20 0.448245 1.00135 0 0.537141 1.00002 0
0.61834 1.74999 2.71051e-20 0.633055 2.49999 -3.38813e-21 0.641448 3.25 0 0.641907
4 -1.69407e-21 0.641985 4.75 -8.47033e-22 0.641996 5.5 -4.23516e-22 0.641998 6.25
0 0.641999 7 0 0.641999 7.75 0 0.642 8.5 5.29396e-23
0.642 9.25 -5.29396e-23 0.642 10 0 0.642 -5 0 0.641985
-4.24997 -1.69407e-21 0.641926 -3.49993 0 0.641557 -2.74988 0 0.639897 -1.99989
6.77626e-21 0.63382 -1.25099 2.55465e-18 0.614606 -1.25 -2.71051e-20 0.515981 -0.878244 0
0.50789 -0.875961 2.71051e-20 0.459694 -0.875609 0 0.410432 -0.498432 0 0.400603
-0.498071 -1.70762e-18 0.413126 -0.450805 0 0.413349 -0.45095 0 0.400955 0.250009
1.89735e-19 0.412703 0.25 2.71051e-20 0.425212 0.296872 1.00289e-18 0.425187 0.343754 -2.71051e-20
0.425153 0.343763 0 0.400146 0.250006 0 0.400175 1.00162 1.41488e-17 0.520353
-2 4.23516e-22 0.820145 -2.09502 -2.11758e-22 0.830091 -2 0 0.829497 -1.25123
0 0.813251 -1.25126 0 0.713737 -1.25101 6.77626e-21 0.62198 1.00059 0
0.714169 1.00094 0 0.809205 1.75018 0 0.82775 2.5 0 0.835521
3.25 0 0.835917 4 -1.69407e-21 0.835986 4.75 -8.47033e-22 0.835996 5.5
0 0.835998 6.25 0 0.835999 7 0 0.835999 7.75 0
0.836 8.5 0 0.836 9.25 0 0.836 10 0 0.836
-5 -8.47033e-22 0.835986 -4.24997 0 0.835935 -3.49995 0 0.835616 -2.74991
0 0.83419 -0.970118 0 0.703382 -0.87455 0 0.699864 -0.874264 -2.71051e-20
0.649852 -0.874033 -2.71051e-20 0.599873 -0.49698 0 0.599585 -0.497345 -9.21572e-19 0.612046
-0.450014 0 0.611892 -0.44938 2.71051e-20 0.599454 -2.00002 0 0.84097 -1.84639
-3.38813e-21 1.02215 -1.25185 0 1.01276 -0.896512 -3.38813e-21 0.900668 -0.908183 6.77626e-21
0.801076 -0.904022 -1.86347e-20 1.00093 0.624925 0 0.799916 0.249931 0 0.799891
0.249978 0 0.899916 0.249997 0 0.999939 0.999987 0 0.999957 1.75061
-2.1684e-19 1.02409 2.50003 0 1.0296 3.25 -1.69407e-21 1.02993 4 0
1.02999 4.75 0 1.03 5.5 0 1.03 6.25 2.11758e-22 1.03
7 0 1.03 7.75 0 1.03 8.5 5.29396e-23 1.03 9.25
0 1.03 10 0 1.03 -5 0 1.02999 -4.24998 0
1.02994 -3.49996 -8.47033e-22 1.02968 -2.74996 0 1.02849 -2.00026 0 1.02458
-0.87482 0 0.799893 -0.87491 0 0.899919 -0.49993 0 0.799862 -0.499958
7.6233e-19 0.849889 -0.312476 0 0.849885 -0.312472 0 0.799853 -1.25001 8.04681e-21
1.19601 -0.499979 5.29396e-23 1.10737 -0.731886 2.11758e-22 1.19997 -0.499981 0 1.19997
-0.124987 0 0.999933 -0.477759 -5.29396e-23 0.999933 -0.487556 -1.45584e-22 1.09995 0.250008
0 1.19997 1 0 1.19997 1.7507 0 1.22203 2.50003 -1.35525e-20
1.22368 3.25 0 1.22394 4 0 1.22399 4.75 4.23516e-22 1.224
5.5 0 1.224 6.25 2.11758e-22 1.224 7 0 1.224 7.75
1.05879e-22 1.224 8.5 0 1.224 9.25 0 1.224 10 2.64698e-23
1.224 -5 4.23516e-22 1.22399 -4.24999 -4.23516e-22 1.22395 -3.49998 0 1.22374
-2.75001 0 1.22279 -2.00077 0 1.21965 -1.24997 4.23516e-22 1.19997 -0.499969
-5.29396e-23 0.999933 -0.874942 0 0.999936 -0.499979 -1.32349e-23 1.09995 -2.75001 0
1.36967 -3.18711 4.23516e-22 1.41751 -2.75001 4.23516e-22 1.4171 -2.00072 3.38813e-21 1.29692
-2.00065 0 1.41474 -1.25823 6.35275e-21 1.40014 -0.980416 0 1.39998 -0.499986
0 1.39998 0.250009 0 1.39998 1 0 1.39998 1.75054 0
1.41682 2.50002 -1.35525e-20 1.41776 3.25 0 1.41796 4 4.23516e-22 1.41799
4.75 0 1.418 5.5 0 1.418 6.25 0 1.418 7
0 1.418 7.75 0 1.418 8.5 0 1.418 9.25 0
1.418 10 0 1.418 -5 0 1.41799 -4.24999 0 1.41797
-3.49999 -4.23516e-22 1.41781 -1.24998 0 1.39998 -2.80392 1.32349e-23 1.61143 -2.75
-1.32349e-23 1.6114 -2.0003 0 1.60983 -1.25396 2.64698e-23 1.60004 -1.12789 2.64698e-23
1.59999 -0.49999 1.05879e-22 1.59999 0.250008 0 1.59999 1.00001 4.23516e-22 1.59999
1.75038 0 1.61122 2.50002 0 1.61184 3.25 -4.23516e-22 1.61197 4
-4.23516e-22 1.61199 4.75 0 1.612 5.5 0 1.612 6.25 0
1.612 7 0 1.612 7.75 5.29396e-23 1.612 8.5 2.64698e-23 1.612
9.25 -1.32349e-23 1.612 10 -1.32349e-23 1.612 -5 0 1.61199 -4.24999
0 1.61198 -3.49999 0 1.61187 -1.24999 0 1.59999 -2.75 -1.32349e-23
1.63714 -2.64195 -2.11758e-22 1.80559 -2.00012 -8.47033e-22 1.80492 -1.25741 0 1.80004
-1.19082 -7.94093e-23 1.8 -0.499992 1.05879e-22 1.79999 0.250006 2.11758e-22 1.79999 1
0 1.8 1.75023 0 1.80561 2.50001 3.38813e-21 1.80592 3.25 0
1.80599 4 0 1.806 4.75 2.11758e-22 1.806 5.5 0 1.806
6.25 0 1.806 7 0 1.806 7.75 0 1.806 8.5
2.64698e-23 1.806 9.25 0 1.806 10 0 1.806 -5 0
1.806 -4.25 -2.11758e-22 1.80599 -3.49999 0 1.80594 -2.75 -1.05879e-22 1.8057
-1.24999 0 1.8 -2 -4.76456e-22 1.98532 -1.20969 -1.65436e-23 2 -0.499993
0 2 0.250006 0 2 1 0 2 1.75 0
2 2.5 0 2 3.25 0 2 4 0 2
4.75 -1.05879e-22 2 5.5 0 2 6.25 0 2 7
5.29396e-23 2 7.75 0 2 8.5 0 2 9.25 0
2 10 -1.32349e-23 2 -5 2.21817e-18 2 -4.25 1.05879e-22 2
-3.49999 0 2 -2.74999 0 2 -1.99999 -5.29396e-23 2 -1.24999
3.30872e-24 2 0.0956945 -5.42101e-20 0.203879 0.0632748 0 0.203876 0.0625511 0
0.250042 -0.403589 6.77626e-21 0.40138 -0.405779 7.7927e-19 0.38799 -0.406379 -6.77626e-21 0.375196
-0.499567 -1.35525e-20 0.375265 0.250006 -6.50521e-19 0.375144 0.156247 0 0.375155 0.156237
9.41901e-19 0.400212 0.203129 0 0.400201 0.249796 0 0.59991 0.249852 -1.0842e-19
0.587433 0.202953 0 0.587417 0.202888 6.50521e-19 0.599901 0.625121 -6.77626e-21 0.499953
0.717439 6.77626e-21 0.504955 0.625095 6.77626e-21 0.475379 0.343596 1.0842e-19 0.599918 0.343639
0 0.574939 0.296781 0 0.574964 0.249926 0 0.574977 0.62499 -4.2826e-18
0.549927 0.624917 4.55365e-18 0.599925 0.203133 0 0.412725 -0.449046 0 0.587135
-0.496581 5.42101e-20 0.587161 0.625036 -9.32414e-18 0.40006 0.625067 1.13164e-18 0.450032 0.249704
0 0.624881 0.155871 0 0.599866 0.155839 1.95156e-18 0.624853 0.249886 1.35525e-20
0.749873 0.062411 0 0.749846 0.0624478 -4.26227e-18 0.799869 -0.312472 0 0.749804
-0.499901 -3.38813e-21 0.749824 -0.691227 0 0.30453 -0.499912 3.02221e-18 0.300065 -0.875784
-3.11708e-18 0.361353 -0.592465 -2.71051e-20 0.40036 -0.499854 0 0.350135 -0.687111 1.35525e-20
0.350117 -0.68656 -2.71051e-20 0.40021 0.437526 -1.35525e-20 0.400108 0.437522 6.77626e-21 0.350086
0.250015 -2.51399e-18 0.35011 0.625027 3.38813e-21 0.350064 -0.592287 0 0.425286 -0.498048
0 0.425444 -0.873902 5.42101e-18 0.54992 -0.496663 0 0.574746 -0.591532 0
0.574798 -0.591729 0 0.599734 -0.149108 0 0.406489 -0.149477 -5.29396e-23 0.403592
-0.149678 0 0.406489 -0.451876 -2.1684e-18 0.499977 -0.451579 0 0.487563 -0.498366
0 0.487552 -0.498515 -1.0842e-19 0.499993 0.437553 0 0.450075 0.437532 -6.07153e-18
0.425113 0.254621 -1.25361e-19 0.496697 0.26485 -5.42101e-20 0.498023 0.264831 0 0.496529
0.254636 -2.30393e-19 0.49668 0.570241 0 0.499932 0.437665 -2.71051e-20 0.474991 0.437859
-2.71051e-20 0.49988 0.437372 -1.0842e-19 0.599915 0.249722 3.25261e-19 0.649874 0.43732 -5.42101e-20
0.649899 0.624872 0 0.649914 0.624883 -3.95734e-18 0.699913 0.43734 6.83047e-18 0.699894
0.249817 0 0.699869 -0.592227 0 0.624743 -0.498071 -2.71051e-20 0.624658 -0.499769
6.77626e-21 0.69979 -0.687025 0 0.699824 -0.150854 -1.03677e-18 0.599678 -0.151059 -6.77626e-21
0.605522 -0.127339 6.77626e-21 0.605681 -0.127867 0 0.599582 -0.406139 -4.40457e-20 0.699754
-0.406113 0 0.674749 -0.499634 0 0.674774 -0.18433 -4.23516e-22 0.674527 -0.163626
-4.23516e-22 0.678958 -0.165125 0 0.674537 -0.171868 4.23516e-22 0.674524 -0.14924 3.34737e-19
0.400169 -0.125737 0 0.400165 -0.12551 0 0.393854 -0.149076 -2.11758e-22 0.393877
-0.499925 -2.61564e-18 0.325088 -0.406241 0 0.325087 -0.4062 0 0.300069 -0.124901
0 0.300062 -0.218633 -3.27294e-18 0.299673 -0.218596 1.35525e-20 0.324664 -0.124851 0
0.325085 -0.126061 7.86047e-19 0.406473 -0.0785222 1.30782e-18 0.400166 -0.126118 3.38813e-21 0.41275
-0.0785648 0 0.412729 0.240678 1.0842e-18 0.500153 0.252614 -2.1684e-19 0.498317 0.252386
1.0842e-19 0.496231 0.241035 0 0.496114 0.228892 -1.35525e-20 0.496204 0.228835 6.77626e-21
0.498715 0.229819 2.71051e-20 0.500074 0.25248 0 0.499935 0.240657 -1.6263e-19 0.500957
0.264863 0 0.500154 0.264689 0 0.500951 0.437443 0 0.549896 0.437406
[...]
POINT_DATA 2021
FIELD attributes 2
p 1 2021 float
1.92762 1.3668 2.33743 4.26044 0.0633708 0.0612182 -4.22409 -6.07282 -7.72463 -6.14971 -4.30596
0.491681 0.460532 0.106575 0.3183 0.165726 -0.000616198 0.0202284 0.00106176 0.00941917 0.00474882
0.0120969 0.00194772 0.00922817 3.28701e-05 0.00668084 -0.000591182 0.00528669 -0.0012404 0.00387144 -0.00207272
0.00205094 -0.0013391 0.00244924 0 0 0.6204 0.615955 0.615801 0.620112 0.64126
0.640362 0.711173 0.708068 0.931837 0.928921 1.63683 1.76139 1.77416 2.21838 2.45903
-4.13217 1.29808 -4.18623 0.666096 -0.0968058 -6.06258 0.565148 0.430257 0.17416 0.0149211
-0.00259456 0.00381904 0.0042583 0.00321091 0.00267793 0.00198705 -0.000124977 0.00172702 0 0.615363
0.619337 0.637949 0.699092 0.908797 1.96067 2.03004 3.10788 3.85683 7.183 -3.57109
-1.22071 4.47845 -5.66211 -5.65329 -2.18134 0.338238 0.833851 1.05389 0.922687 0.510312
0.506332 0.731887 0.76237 0.421364 0.155557 0.0100142 -0.00702801 0.00134016 0.00297174 0.00198775
0.00155249 0.00121206 -0.000431011 0.00158322 0 0.614666 0.618142 0.63432 0.686485 0.869397
1.86163 2.14397 5.14723 5.59428 4.82466 32.4702 36.3696 51.8747 45.8156 5.00974
5.16348 3.53049 3.58915 2.79669 4.25146 0.725621 0.815944 0.795321 0.813261 1.41253
1.80095 1.85714 0.946961 0.470428 0.347172 0.123388 0.00754521 -0.00367293 0.00503962 0.00606127
0.00396502 0.0029301 0.00247623 0.00173409 0.00244308 0 0.613784 0.616656 0.6299 0.671677
3.28477 3.78917 4.7159 4.78574 34.4726 32.8117 44.7966 50.9203 0.809433 0.790422
0.953614 1.73885 2.66813 1.16614 0.0586176 -4.97061 -5.37814 -2.76929 -0.242388 0.186175
0.0711795 -0.00902856 -0.013736 -0.00289118 -0.000490525 -0.00180974 -0.00192997 -0.00128317 -0.000825785 -0.000154338
0 0.612809 0.615029 0.625085 0.655746 0.748164 2.79015 1.76976 5.32611 3.40317
0.715008 -0.460877 0.708755 0.34696 0.330919 0.164162 -1.68546 0.725895 0.318353 -0.972345
-0.407657 0.0922361 0.0633905 -0.00570676 -0.0136829 -0.00339029 -0.000607415 -0.00171143 -0.00148122 -0.000411534
0.000371953 0.000754061 0 0.611839 0.613414 0.620245 0.639648 0.684423 0.703456 0.877717
1.1839 0.361612 0.628416 0.619563 0.62479 0.664047 0.63297 0.576021 0.394769 0.0728603
-0.562801 -0.389026 0.0410545 0.0582812 -0.00690823 -0.0179598 -0.00668484 -0.0026956 -0.00328802 -0.00269655
-0.0013367 -0.000374412 2.65443e-05 0 0.610972 0.611956 0.615821 0.575389 0.612972 0.613026
0.597645 0.503868 0.435733 0.0879223 -0.4341 -0.358012 -0.00535802 0.0472415 -0.0103514 -0.021543
-0.0085033 -0.00330832 -0.00358378 -0.0029008 -0.00149349 -0.000491164 -6.99198e-05 0 0.61029 0.610781
0.612273 0.503368 0.612043 0.601506 0.577183 0.465604 0.435391 0.0956781 -0.364155 -0.340758
-0.0313256 0.0422241 -0.0106413 -0.0225606 -0.00910506 -0.00351336 -0.00377815 -0.00314683 -0.00175175 -0.000715872
-0.000232065 0 0.609848 0.609998 0.609923 0.605601 0.464489 0.570871 0.433 0.0982444
-0.341978 -0.335214 -0.0394173 0.0407398 -0.0106666 -0.0229385 -0.00941277 -0.00367754 -0.00390582 -0.00325912
-0.00184169 -0.000773771 -0.000253052 -5.95411e-05 0.609693 0.609715 0.609075 0.603064 0.570358 0.452009
-10.2958 -11.1591 -11.7601 70.1335 59.6116 43.4388 29.5152 3.01189 1.90419 4.67459
5.26762 3.63639 3.87553 5.29757 4.76712 1.97323 1.66713 2.10901 2.56477 3.06713
2.54225 3.19231 2.15788 1.78922 6.37086 56.3879 39.5514 1.94741 2.24878 3.6071
4.06973 2.11696 -4.5685 -11.4649 -10.0315 -2.87287 8.65438 6.96304 11.7794 4.73935
17.4226 20.6721 9.10237 10.4939 2.65291 1.51895 1.06642 1.66986 19.7001 36.8472
5.63377 39.7412 20.4057 18.9139 -60.0918 -59.8183 -60.0948 68.454 68.3451 47.5531
44.8066 3.53946 3.25456 -7.16805 -1.07929 -1.20876 -7.22521 2.55772 4.06311 3.96354
2.63573 1.9517 1.69659 1.55357 0.907148 0.749041 -1.2617 17.1155 28.2395 13.4546
7.35689 -56.3207 -55.8122 -59.3069 -59.7879 14.206 19.4534 18.6423 -45.8499 -42.527
-44.2279 -44.8603 -59.4916 -58.4851 -58.3098 -58.7519 16.4643 15.5407 11.7392 -29.4585
-28.4307 -45.9386 -37.052 -59.9696 -46.2388 -59.9328 -48.843 11.3339 3.58525 10.7821
12.355 9.43448 9.70235 9.99727 3.74262 11.468 -0.494942 -0.765164 3.50367 3.17906
4.04627 4.21502 47.7782 68.3575 -59.8163 -56.5481 5.94125 11.4647 -54.5443 -56.003
-59.7853 3.69172 5.65707 5.95858 6.06394 -31.6049 -40.4674 -48.5849 -29.2195 64.3163
60.682 41.5942 41.3606 -43.9402 -56.6925 -11.3734 -8.17479 -0.250079 -24.0924 -42.4163
43.054 44.3939 64.4026 66.553 -53.951 -52.5667 -53.5963 0.537643 -9.96366 -13.2005
-12.0558 -22.54 -25.9978 -58.5162 44.0212 21.8552 22.1668 11.6958 11.9996 12.2077
13.1468 22.0623 44.5462 10.8514 12.5093 11.9365 13.2674 -61.4338 -61.3804 -60.2548
-60.2341 -60.1047 -59.9329 -59.8413 45.7819 66.7586 -61.2321 -60.981 -61.5642 -61.1778
-29.2536 -34.9353 -32.5851 -12.6713 -0.600713 -4.33842 -51.8857 -51.5118 -60.1167 -11.7781
1.539 1.31809 -12.1288 -60.7394 -58.6779 -52.6113 -10.9968 -8.54517 -1.96071 3.21165
-8.13804 -6.7041 -19.9423 -40.6731 -44.5822 -39.0446 -53.9661 -54.9295 -55.1584 -4.71411
-18.1908 -19.5109 -5.85457 -57.7152 -53.492 -57.7815 -3.78 -9.53901 -16.7649 -9.99063
67.5852 46.9239 -55.063 -55.2145 -58.2259 -58.2058 -57.5906 -54.5094 -58.6 -55.4583
-57.4418 -60.648 -60.7651 -60.8433 -30.7515 -75.3193 -94.4259 -99.3316 -101.311 -100.851
-47.0951 -50.3122 -54.5217 -48.312 -51.9911 -100.661 -101.285 -72.5125 -35.7113 -60.0873
-60.6083 -60.5332 -58.2134 -59.2314 -60.1434 -60.0159 -59.9828 8.31381 7.59791 10.3695
-57.6703 -57.3787 -57.589 -57.0219 -57.1285 -57.583 -58.1316 -56.5201 -56.501 1.53909
1.04451 -0.201691 0.561737 3.7205 4.18048 1.08573 -57.59 -58.1894 -58.9401 5.95184
6.72258 2.68851 0.621403 3.12194 -30.8668 -37.2491 -36.6401 -30.6136 -54.9063 -55.334
-59.0407 -59.0201 -56.3209 -57.5166 -40.0803 -44.8319 -44.2168 -37.6871 -46.5878 -50.0874
-52.4008 -52.6974 -51.6951 123.891 131.784 147.038 147.123 -60.2312 -58.1276 -58.773
-60.1089 -60.6155 6.18087 3.98505 4.77335 6.27263 -10.174 -4.28286 -7.01365 -9.97401
-12.8313 -40.3587 -37.6155 -25.86 -28.1804 -33.0468 -40.3974 -23.5665 -23.4651 31.4236
41.6237 52.4204 38.1024 23.2316 20.1363 34.7941 26.7765 0.778298 0.939911 2.07091
33.6 24.5072 16.3248 21.2314 2.26955 3.45147 4.00292 3.97685 2.92325 5.63105
5.81306 3.85771 -8.88383 -7.55362 -1.17866 -9.91263 14.8053 9.219 10.8894 -53.9408
-57.2195 -57.3426 -54.1399 -81.7664 -80.495 -83.7112 -47.6609 -11.61 -17.6977 -26.1909
-56.5333 -53.1549 -55.8765 -57.1747 -74.6856 -74.282 -59.2337 -60.3214 -50.6429 -51.1815
-53.3054 -53.19 2.64513 2.66415 -1.66688 5.8538 5.42856 4.14466 4.94024 5.74684
6.0317 -54.6066 -52.9309 -67.9783 -67.1967 78.6745 93.6617 85.2261 111.799 106.069
88.5715 89.923 161.685 163.981 153.104 121.386 98.2155 104.193 97.0926 117.375
-12.3456 -26.2645 -30.4807 -5.34499 -25.5295 -52.3575 -41.4405 -5.84823 94.0198 101.492
87.0003 78.4829 96.8489 88.5766 107.842 148.645 158.32 167.483 165.189 106.697
103.008 159.771 -34.4305 -8.42155 -40.8798 -29.8415 -50.0087 140.16 140.012 115.546
110.547 110.152 115.424 139.509 138.879 108.012 167.115 170.704 171.917 172.199
173.659 186.602 186.782 174.757 173.215 -32.7168 -40.4417 -32.6398 -58.1713 -52.0805
-42.6999 -41.7243 -40.242 -24.87 4.5034 -0.774224 1.14548 173.338 175.284 187.139
172.332 186.469 187.101 175.183 172.214 179.642 181.784 170.14 168.912 179.96
167.896 171.114 182.449 -54.896 -39.5246 -37.6232 -57.3091 -57.446 -57.8378 -36.8681
-47.3426 -36.907 -37.669 -47.0176 -46.9479 -3.60275 -9.51008 -25.2738 -25.2907 -32.6016
-43.8704 -32.1033 -31.5359 -43.0977 -19.7716 -17.317 -19.0762 115.398 140.107 138.131
139.029 114.685 109.327 170.061 169.93 170.497 167.758 136.423 108.441 113.607
137.165 -58.3812 -54.6728 -53.6963 -53.4921 -57.2285 -47.6602 89.4887 92.623 77.7546
-13.7384 -5.09882 -4.85534 -18.7644 55.1399 57.1348 70.8568 74.2152 -56.9681 -56.0575
-56.4016 -56.9629 -58.5344 -58.8016 -59.2104 -59.2992 -59.4917 -59.6186 -59.6051 -59.8717
-131.915 -105.979 -75.5045 -94.0189 -96.3185 -98.1554 -98.1428 -82.3509 -79.7224 -93.5144
-74.1538 -89.7164 -138.478 -141.633 -132.84 -97.3749 -98.0816 -58.2424 -57.7271 -58.4293
-59.3266 -59.4986 -57.4268 -57.3168 8.36448 8.75276 14.3873 17.4607 14.3333 -52.2093
-51.4644 -46.4266 -46.6387 -47.0971 -46.9208 -46.9075 -46.8201 13.9568 13.2936 18.2298
7.63936 7.37635 8.87706 9.40078 9.49511 8.07051 6.81124 7.6266 12.0038 15.3573
13.3283 0.380604 -1.94339 -4.15322 6.28517 5.0429 3.87801 5.88843 6.46692 -54.4278
-55.6281 -58.4211 -57.521 -50.603 -51.9004 14.3259 16.8651 18.2586 -47.6614 -50.1395
-50.4449 -47.319 -46.8129 11.7584 11.455 11.5028 9.93181 6.71323 -8.46672 -7.12116
4.82174 5.06538 5.09594 -50.4798 -51.1408 146.029 148.041 140.383 136.507 112.54
117.745 125.197 120.46 184.52 185.794 182.081 178.32 -59.2592 -59.3242 -55.5736
-55.3945 169.637 183.369 185.048 172.983 174.426 186.539 171.035 182.171 169.64
179.342 -17.2142 -20.1842 -24.6452 -29.7731 -28.1222 -24.9891 -7.04269 -1.70598 -2.02417
-7.20977 -12.2589 -12.0413 -1.20446 -9.19733 -10.0709 -15.3209 -18.3151 -8.78645 -9.41363
-25.1617 -20.6125 -9.63842 -0.643552 -3.02504 6.82597 -2.95961 6.8102 7.84958 2.57104
2.99517 3.74696 3.50606 8.32916 6.45309 4.08119 6.03489 -18.9408 -15.669 -26.2376
-21.0573 -57.7193 -59.3716 -60.1109 -60.1488 2.81071 2.98491 5.20919 5.6193 4.47722
5.09284 -15.3548 -41.2202 -57.8517 -65.9055 -54.288 -32.9952 -60.3923 11.438 10.825
10.8516 -4.82682 -1.52517 12.6777 18.9619 8.9985 26.0574 22.597 11.0941 0.256513
6.48315 8.25788 13.9916 12.01 5.64115 -56.3747 -44.5561 -49.6722 -11.9716 -42.6335
-23.5627 -59.1668 -82.1834 107.856 91.8175 105.525 107.551 112.093 111.085 172.82
171.943 173.196 172.523 171.201 185.893 185.893 185.125 -60.9683 -61.1547 174.502
-58.1276 -58.1263 -59.0391 -59.1472 -58.9314 -59.6533 -155.469 -142.205 -142.069 -138.597
-163.21 -141.956 -136.784 -137.136 -122.339 -118.414 -83.5145 -73.7113 -74.1188 -71.4862
-122.148 -124.035 -58.6887 -57.6503 -56.4339 -59.0535 11.1567 8.77662 11.8571 9.19364
12.3199 13.2909 13.7891 14.6003 15.406 -56.8565 -55.7947 -58.2101 -56.5289 -54.0758
-53.7632 -53.9698 -56.3056 -7.18124 -1.13713 -2.04936 -5.69857 8.91319 8.97522 6.3393
5.62565 7.1894 9.08507 8.3959 6.29176 1.03815 7.64597 6.58111 6.4477 9.54981
11.4363 10.1688 12.9055 12.2917 -56.3619 -56.7695 -55.0637 -55.2199 -55.2464 -54.8783
-54.3116 -52.8227 -54.362 -54.3709 -54.2899 -50.3118 -51.6427 -72.7775 -71.9909 -56.76
-59.0148 -76.7724 -67.7054 -75.2771 -121.384 -125.673 -133.266 -78.6149 -96.488 -105.656
-79.5653 -97.8718 128.284 113.075 148.053 151.312 -57.7564 -57.3596 -58.2184 -58.2881
-55.7078 143.907 167.89 146.155 -49.3746 -48.4721 -48.9532 -49.8047 -49.5613 -49.5854
-49.5118 -47.919 -9.86255 -11.5192 -13.8813 -12.7324 -15.9752 -18.6788 -21.0748 -18.5893
-19.7205 75.0322 85.8406 -56.9065 51.6096 76.8683 65.2484 74.6524 60.1552 12.1849
9.04669 44.5701 35.5988 7.59313 8.40623 2.84689 4.59026 4.38268 6.93852 5.83799
6.30711 6.66364 7.39702 -52.3874 -51.7631 -51.2888 -51.9256 -2.51876 -2.57653 -3.21896
0.932254 5.06739 4.29572 6.87497 6.09503 -50.1581 -50.7365 -50.4734 137.794 135.834
171.104 184.685 188.983 189.273 186.783 185.249 -59.3623 -59.1707 -59.3783 -59.3483
-55.8458 -46.6146 -47.306 -47.6302 -46.8969 -47.146 -48.3709 -57.2614 -57.2867 -58.0377
-59.8769 -59.8272 -59.8093 -60.0098 -59.7261 -58.6296 -114.216 -110.073 -140.449 -116.472
-138.428 -125.346 -126.87 -137.888 -57.3655 -59.8583 -57.8077 -58.1436 15.1164 13.78
12.9477 14.0327 14.0137 14.6251 -36.3842 -35.9894 -31.1767 -30.2889 -41.8419 -42.5717
-47.6047 -47.0782 -52.6452 -52.7036 -46.5438 -52.9916 -52.6332 -7.38895 -1.67615 -12.9869
-1.28098 0.243774 7.70935 7.39187 7.82016 3.29112 10.121 7.03426 8.34911 9.54675
10.2868 10.3028 10.3575 12.2133 11.873 0.394756 12.0204 14.2236 15.4605 1.50702
0.739844 0.406443 1.44767 -61.5546 -60.543 -56.3047 -58.8564 -46.8855 -46.1396 -41.5153
-46.4917 -48.1645 -52.7892 -54.6766 -52.3164 -52.5395 -52.2919 -48.494 -54.0112 -47.6468
1.85737 -50.5432 -51.929 140.453 131.184 128.927 128.708 129.092 113.441 105.964
188.564 188.058 187.035 -51.9226 -52.3412 0.270472 0.824495 1.86113 -29.1644 -29.8829
186.104 186.913 180.417 183.4 181.982 181.596 -34.3392 -30.4051 -1.58768 -6.58905
-4.74324 -1.70492 -23.9224 -12.5261 -9.38326 -12.0412 -18.7275 -4.67063 80.5842 56.3836
60.9631 21.0526 21.4915 67.9597 110.636 10.7732 7.40331 -3.43313 -3.70713 6.89937
7.71314 7.99164 6.22459 6.62701 24.8809 16.9024 0.588337 20.4238 -4.07749 2.42533
8.15423 8.03195 68.0498 110.203 -54.8009 -56.0736 18.7618 90.3513 108.159 100.915
93.292 108.741 109.658 126.981 134.761 143.562 -59.4366 80.208 72.0472 48.6308
13.9553 19.689 17.8671 -73.2502 -58.767 -58.7614 -58.7647 -55.943 -55.9175 -60.561
-56.0038 -60.2745 -61.0501 25.6941 -7.64171 5.84366 10.9429 11.4522 -3.44777 -3.57499
-4.89579 -55.5668 -54.3718 -1.71986 2.15652 2.45226 -59.612 -58.9555 -58.2784 8.44406
8.20792 3.36368 -58.5619 41.9981 47.8876 -70.334 -62.634 15.2099 12.9369 8.22687
6.29195 4.35334 7.72289 6.2294 -53.3111 -53.2727 -52.2488 -52.2869 -55.1399 -51.3001
-50.7885 -55.2409 -55.5647 -55.6003 -55.0062 -56.2802 -55.8274 -55.5584 -55.294 3.36236
-50.7742 -57.1201 -56.1433 100.132 128.688 144.345 154.783 167.844 162.596 160.403
148.416 188.159 -55.3139 -57.2 -53.5244 -5.59642 -8.657 -1.42859 -50.1506 -50.1493
-50.0714 -50.2533 -53.9611 -47.8816 -49.1231 -47.8139 -47.545 -48.2243 29.0106 20.5828
-109.969 -117.639 -117.397 -118.006 -118.341 -74.3189 -97.4925 -74.3195 14.5855 18.2016
-12.8553 12.5242 11.6759 -7.38747 -9.48511 3.60065 1.17745 -0.200648 -1.37325 -3.24392
-4.59381 -2.81965 2.90032 2.62857 -2.38816 0.991451 2.75975 0.560004 -1.05505 14.3947
18.9446 -50.755 5.14074 12.1308 8.16596 15.9966 6.45637 9.9226 13.2217 15.03
3.0885 3.07399 6.23188 5.57907 -4.24086 -6.53605 -9.24991 -9.13843 3.96743 0.0592383
3.49353 9.48876 16.7117 18.2154 8.12853 4.99693 1.68252 1.33808 6.89258 10.9687
11.663 12.4593 11.4682 5.0444 -5.85764 4.89647 -4.90539 1.49103 -5.86697 1.00061
11.6219 8.54807 13.1832 6.89271 10.0931 12.2266 11.4585 11.1231 8.17411 9.13456
9.71427 9.9969 7.95553 7.67075 7.77633 5.97901 -8.27905 -12.6602 -10.2994 5.98952
5.649 8.37808 5.62986 -12.5271 -14.4651 -0.0544087 6.9978 5.33503 -3.49293 5.0103
-142.375 -142.955 -143.065 11.7736 -57.2893 -56.2004 -56.2633 4.87346 9.60147 5.12802
8.13558 12.0786 -57.5068 -57.3413 -56.7746 -56.4861 -60.2747 -59.6797 -60.0088 -68.2306
-114.423 -117.514 -111.987 -118.154 -49.3551 -49.9013 -47.8214 -47.5258 -47.718 -47.5309
-16.4719 -16.5044 -18.9042 -52.0627 -51.8303 -51.5219 4.0691 -0.250352 4.11243 3.82035
-51.2439 -51.735 -51.9447 141.143 150.609 -59.0746 -51.9087 14.504 15.2805 11.5677
6.92646 10.9173 18.364 4.28595 3.44882 4.88654 3.85653 -52.3592 -58.2911 -57.9682
-56.2529 7.40238 16.4089 11.5038 3.58715 3.82005 10.5235 9.25553 9.86186 9.04231
10.6954 13.0333 10.4968 5.28477 8.65883 8.26453 -54.7863 -50.5864 -48.88 91.8707
81.2469 84.9113 67.9523 73.7691 -5.53862 -3.43006 -0.00680416 -1.97188 7.77221 8.32366
8.00092 8.34325 8.15643 7.59754 6.94716 117.257 107.124 95.0909 -74.2459 -58.0648
-56.9437 -55.7761 -55.6659 -55.1984 -55.2173 163.445 139.748 161.867 161.99 9.02806
6.10143 12.255 12.9299 7.69267 9.34547 7.84114 7.36593 6.47516 2.39093 -3.50548
4.80353 5.53119 6.11737 3.98598 6.75065 15.555 9.51082 -16.9743 16.9709 13.9724
6.68297 10.1133 17.3278 9.5677 -17.2878 -18.2865 -15.9707 -5.13036 -7.67311 -17.3785
6.95667 4.50763 -19.3038 -20.9644 5.12778 3.16037 -3.7277 -6.24854 -55.1968 -46.7009
14.6138 1.16306 -0.779291 -1.16325 5.83409 5.38962 6.3914 5.86644 5.80524 5.30798
-1.63631 5.55216 6.50743 -2.46458 5.20751 3.89337 7.0776 6.48263 5.87364 107.045
87.7557 122.571 124.438 4.64366 4.26861 2.2422 -55.4914 4.54906 6.0382 5.71876
-10.8749 -14.0451 -0.691207 5.82188 6.48976 5.19161 8.64946 4.67286 7.11649 2.88653
35.0134 -52.3515 -56.0605 -55.5612 -55.5545 -55.6903 -4.57393 -6.36949 -16.9216 -16.7766
-16.8021 -5.74456 7.80083 1.4652 4.55474 5.93763 0.620557 0.511507 -2.18631 -3.12286
-14.7792 -7.89806 -6.63451 -14.9575 -6.75475 -16.0293 4.84028 -15.1726 -16.7311 -5.05611
0.227989 6.07843 5.97542 5.48867 9.20628 -1.71854 6.46655 -4.03465 -2.12216 4.17578
-2.82702 7.25187 4.51456 -11.2007 9.11412 -1.65021 5.99959 0.531399 0.981142 4.70205
5.01964 4.11817 4.87232 1.25321 7.71743 8.86331 4.83599 5.74667 -0.162713 2.69608
11.6051 5.26533 -0.668442 -1.32987 2.46058 172.958 176.823 176.193 181.076 169.206
168.203 172.783 179.824 180.826 67.9013 72.1886 53.0502 -58.1008 -41.3242 -38.0615
-36.422 -30.3033 -45.6039 -52.028 -51.7042 -56.7227 -48.6619 100.188 154.737 162.303
155.44 147.349 -59.7557 -59.4856 -59.3847 -59.4873 -58.1369 -59.5011 -56.7875 -57.1055
-56.9434 5.68245 1.35569 171.228 -16.9169 185.96 190.194 189.356 -52.6147 -48.0239
182.765 185.914 186.06 -16.5385 -51.2826 85.6652 -56.0108 -56.1452 -56.3989 -56.375
-52.1282 189.309 -0.672941 189.499 185.508 189.08 8.34273 -63.2904 109.738 109.059
-57.7858 4.23882 -53.3328 -55.5962 -53.5306 -143.415 139.196 -55.8814 158.803 -53.7448
-118.415 -118.338 73.511 7.01145 1.65491 168.225 164.838 -14.9739 139.77 191.059
189.963 185.425 189.372 190.757 189.75 172.76 191.115 186.739 189.91 191.146
0.620416 0.615961 0.641249 0.710297 0.922854 1.61762 2.18971 -4.06037 1.28615 0.0277677
-4.11956 -5.89884 0.404841 0.0846445 -0.00627118 -4.37799e-05 0.00450873 0.00202299 0.000329107 -0.000131736
-0.000643563 -0.00136356 -0.000585425 0.000197618 -54.3617 -52.4856 -131.03 -131.593 -48.2517 -48.7519
-49.4856 -48.061 -48.6096 -49.4141 -49.9936 -47.5588 -95.9675 -75.0499 -49.2034 -47.5312
-74.5029 -49.1141 -51.4043 -51.741 -50.9144 -98.626 -109.872 -126.756 -117.512 -117.308

U 3 2021 float
20.0086 -0.0468178 -0.213832 20.0458 -0.0316064 -0.072856 19.9308 -0.00717114 -0.0959804 19.9397 -0.0576097
-0.603404 20.0192 -0.0601793 0.0410691 20.0194 -0.0600679 0.0411013 20.1692 -0.0803998 0.0580509
20.2337 -0.0891561 0.0658361 20.279 -0.0944178 0.148733 20.2901 -0.119807 0.263403 20.2102
-0.120553 0.208665 19.9589 -0.048477 0.0212803 19.9984 -0.0553405 0.0195651 20.0053 -0.0536153
0.00823761 19.8637 -0.0265748 0.019742 19.8625 -0.0230471 0.0162907 20.0076 -0.0532495 0.00318734
19.8651 -0.0213347 0.0122095 20.0062 -0.0524056 0.00178631 19.8642 -0.0195215 0.0116895 20.0046
-0.0515767 0.0011682 19.8629 -0.0178609 0.0115879 20.0032 -0.0507918 0.000760829 19.8619 -0.0164102
0.0113879 20.0018 -0.0500968 0.000464581 19.8608 -0.01514 0.0111234 20.0003 -0.0494639 0.000245933
19.8597 -0.0139973 0.010855 19.9988 -0.0488498 7.16365e-05 19.8587 -0.0129657 0.0105481 19.9972
-0.048256 -1.09462e-05 19.8577 -0.0120131 0.0103649 19.9954 -0.0476205 -0.000127682 19.8566 -0.0109935
0.0100161 19.8561 -0.0104602 0.0096755 19.995 -0.0473917 -0.000207075 19.9996 -0.000352593 3.14447e-05
20 0 0 20 0 0 19.9996 -0.000353336 7.93609e-05 19.9983
-0.00080811 9.40468e-05 19.9984 -0.000820023 0.000279245 19.9943 -0.0015992 0.000363912 19.9942 -0.00156755
0.000993342 19.979 -0.00290019 0.00032292 19.9797 -0.00323001 0.00353646 19.9473 -0.00586436 -0.00906952
19.9371 -0.00651049 -0.00822801 19.9398 0.00174877 -0.0144002 19.9294 -0.00593841 -0.0294757 19.9077
0.00460395 -0.0609389 20.2345 -0.0750463 0.00268478 20.0504 -0.0297444 -0.0555894 20.2366 -0.0742411
0.00616159 19.9358 -0.0918761 0.0318531 20.0276 -0.120445 0.0830458 20.2334 -0.0891227 0.0653224
19.8657 -0.0322814 0.025325 19.3041 0.127909 0.0144822 19.3365 0.125474 0.0152559 19.3651
0.119635 0.0152999 19.387 0.115285 0.0161302 19.4062 0.111369 0.0167391 19.4239 0.107594
0.0169401 19.4405 0.103989 0.0169345 19.4562 0.10058 0.0168399 19.4713 0.097318 0.0166488
19.485 0.0942849 0.0164775 19.5009 0.0911851 0.0161537 19.5106 0.0894934 0.0158731 20
0 0 19.9996 -0.000354569 0.000138166 19.9985 -0.00082152 0.000490133 19.9946 -0.00157749
0.00170898 19.9802 -0.0033745 0.00596308 19.9202 -0.00908271 0.0103199 19.9202 -0.00818511 0.000518049
19.8518 -0.0173064 -0.0957518 19.7951 -0.0212645 -0.0689244 19.9615 -0.0530411 -1.01793 20.4431
-0.0719436 -0.918506 20.2209 -0.0571431 -0.500215 19.9347 -0.0576502 -0.632685 20.307 -0.169193
0.453594 20.3073 -0.170108 0.457069 20.1023 -0.256058 0.579505 19.9934 -0.240449 0.296498