# vtk DataFile Version 2.0
sampleSurface
ASCII
DATASET POLYDATA
POINTS 2021 float
-0.500032 0 0.11501 -0.499951 3.38813e-21 0.0392727 -0.789037 8.47033e-21 0.120673 -0.500013 -1.35525e-20
0.193965 1.00003 0 0.0485099 1.00003 0 0.0478584 0.475202 0 0.0353615
0.250044 1.41878e-20 0.0305359 0.2506 -5.42101e-20 0.117067 0.251301 0 0.203885 0.364989
0 0.203772 1.75002 0 0.113255 1.75002 0 0.0564279 2.50001 6.89146e-18
0.059229 2.21354 0 0.250758 2.50001 0 0.252875 3.25001 -3.47927e-17 0.0598775
3.25001 -1.69407e-21 0.253888 4.00001 5.60566e-18 0.0599857 4 0 0.253986 4.75
-1.79088e-17 0.0599988 4.75 8.47033e-22 0.253998 5.5 -2.79246e-17 0.0599999 5.5 -4.23516e-22
0.253999 6.25 1.01187e-17 0.06 6.25 0 0.254 7 2.93732e-17 0.06
7 0 0.254 7.75 -2.65294e-17 0.06 7.75 0 0.254 8.5
1.8923e-17 0.06 8.5 0 0.254 9.25 -2.88552e-17 0.06 9.25 -5.29396e-23
0.254 10 -2.64698e-23 0.254 10 0 0.06 -4.24997 0 0.0599042
-5 0 0.0599861 -5 0 0.253986 -4.24997 0 0.253912 -3.49995
0 0.0593815 -3.49994 0 0.253441 -2.74993 0 0.0570188 -2.74991 0
0.251316 -1.99991 0 0.0492276 -1.99987 0 0.242776 -1.24992 -1.69407e-21 0.03
-1.24985 1.23328e-17 0.222327 -1.24989 3.38813e-21 0.125756 -0.874924 2.08116e-17 0.03 -0.874929
0 0.122356 -0.124951 -8.47033e-22 0.03 -0.499941 0 0.03 -0.124922 -8.47033e-22
0.0385291 1.00021 0 0.231242 0.625368 0 0.203537 0.25004 -2.11758e-22 0.03
1.75003 0 0.247334 1.92873 1.69407e-21 0.441438 2.50001 0 0.447397 3.25
-1.69407e-21 0.447898 4 0 0.447986 4.75 0 0.447997 5.5 -4.23516e-22
0.447999 6.25 4.23516e-22 0.447999 7 0 0.448 7.75 -1.05879e-22 0.448
8.5 0 0.448 9.25 0 0.448 10 -2.64698e-23 0.448 -5
-8.47033e-22 0.447985 -4.24997 0 0.447919 -3.49993 0 0.4475 -2.74988 0
0.445609 -1.9998 6.77626e-21 0.437758 -1.24969 1.61411e-17 0.417681 -1.24976 -6.77626e-21 0.31973
-0.875161 7.70461e-18 0.216228 -0.875403 0 0.312476 -0.499924 -8.74138e-19 0.250039 -0.312433
0 0.250037 -0.312436 0 0.200025 -0.499924 0 0.200026 0.250062 3.38813e-21
0.24921 0.250039 -1.69407e-21 0.250046 0.250032 0 0.300069 0.437526 3.05948e-18 0.300066
0.625026 0 0.30005 1.00072 -8.23994e-18 0.326497 1.00196 0 0.423 1.75013
0 0.439575 1.75013 1.77877e-20 0.448245 1.00135 0 0.537141 1.00002 0
0.61834 1.74999 2.71051e-20 0.633055 2.49999 -3.38813e-21 0.641448 3.25 0 0.641907
4 -1.69407e-21 0.641985 4.75 -8.47033e-22 0.641996 5.5 -4.23516e-22 0.641998 6.25
0 0.641999 7 0 0.641999 7.75 0 0.642 8.5 5.29396e-23
0.642 9.25 -5.29396e-23 0.642 10 0 0.642 -5 0 0.641985
-4.24997 -1.69407e-21 0.641926 -3.49993 0 0.641557 -2.74988 0 0.639897 -1.99989
6.77626e-21 0.63382 -1.25099 2.55465e-18 0.614606 -1.25 -2.71051e-20 0.515981 -0.878244 0
0.50789 -0.875961 2.71051e-20 0.459694 -0.875609 0 0.410432 -0.498432 0 0.400603
-0.498071 -1.70762e-18 0.413126 -0.450805 0 0.413349 -0.45095 0 0.400955 0.250009
1.89735e-19 0.412703 0.25 2.71051e-20 0.425212 0.296872 1.00289e-18 0.425187 0.343754 -2.71051e-20
0.425153 0.343763 0 0.400146 0.250006 0 0.400175 1.00162 1.41488e-17 0.520353
-2 4.23516e-22 0.820145 -2.09502 -2.11758e-22 0.830091 -2 0 0.829497 -1.25123
0 0.813251 -1.25126 0 0.713737 -1.25101 6.77626e-21 0.62198 1.00059 0
0.714169 1.00094 0 0.809205 1.75018 0 0.82775 2.5 0 0.835521
3.25 0 0.835917 4 -1.69407e-21 0.835986 4.75 -8.47033e-22 0.835996 5.5
0 0.835998 6.25 0 0.835999 7 0 0.835999 7.75 0
0.836 8.5 0 0.836 9.25 0 0.836 10 0 0.836
-5 -8.47033e-22 0.835986 -4.24997 0 0.835935 -3.49995 0 0.835616 -2.74991
0 0.83419 -0.970118 0 0.703382 -0.87455 0 0.699864 -0.874264 -2.71051e-20
0.649852 -0.874033 -2.71051e-20 0.599873 -0.49698 0 0.599585 -0.497345 -9.21572e-19 0.612046
-0.450014 0 0.611892 -0.44938 2.71051e-20 0.599454 -2.00002 0 0.84097 -1.84639
-3.38813e-21 1.02215 -1.25185 0 1.01276 -0.896512 -3.38813e-21 0.900668 -0.908183 6.77626e-21
0.801076 -0.904022 -1.86347e-20 1.00093 0.624925 0 0.799916 0.249931 0 0.799891
0.249978 0 0.899916 0.249997 0 0.999939 0.999987 0 0.999957 1.75061
-2.1684e-19 1.02409 2.50003 0 1.0296 3.25 -1.69407e-21 1.02993 4 0
1.02999 4.75 0 1.03 5.5 0 1.03 6.25 2.11758e-22 1.03
7 0 1.03 7.75 0 1.03 8.5 5.29396e-23 1.03 9.25
0 1.03 10 0 1.03 -5 0 1.02999 -4.24998 0
1.02994 -3.49996 -8.47033e-22 1.02968 -2.74996 0 1.02849 -2.00026 0 1.02458
-0.87482 0 0.799893 -0.87491 0 0.899919 -0.49993 0 0.799862 -0.499958
7.6233e-19 0.849889 -0.312476 0 0.849885 -0.312472 0 0.799853 -1.25001 8.04681e-21
1.19601 -0.499979 5.29396e-23 1.10737 -0.731886 2.11758e-22 1.19997 -0.499981 0 1.19997
-0.124987 0 0.999933 -0.477759 -5.29396e-23 0.999933 -0.487556 -1.45584e-22 1.09995 0.250008
0 1.19997 1 0 1.19997 1.7507 0 1.22203 2.50003 -1.35525e-20
1.22368 3.25 0 1.22394 4 0 1.22399 4.75 4.23516e-22 1.224
5.5 0 1.224 6.25 2.11758e-22 1.224 7 0 1.224 7.75
1.05879e-22 1.224 8.5 0 1.224 9.25 0 1.224 10 2.64698e-23
1.224 -5 4.23516e-22 1.22399 -4.24999 -4.23516e-22 1.22395 -3.49998 0 1.22374
-2.75001 0 1.22279 -2.00077 0 1.21965 -1.24997 4.23516e-22 1.19997 -0.499969
-5.29396e-23 0.999933 -0.874942 0 0.999936 -0.499979 -1.32349e-23 1.09995 -2.75001 0
1.36967 -3.18711 4.23516e-22 1.41751 -2.75001 4.23516e-22 1.4171 -2.00072 3.38813e-21 1.29692
-2.00065 0 1.41474 -1.25823 6.35275e-21 1.40014 -0.980416 0 1.39998 -0.499986
0 1.39998 0.250009 0 1.39998 1 0 1.39998 1.75054 0
1.41682 2.50002 -1.35525e-20 1.41776 3.25 0 1.41796 4 4.23516e-22 1.41799
4.75 0 1.418 5.5 0 1.418 6.25 0 1.418 7
0 1.418 7.75 0 1.418 8.5 0 1.418 9.25 0
1.418 10 0 1.418 -5 0 1.41799 -4.24999 0 1.41797
-3.49999 -4.23516e-22 1.41781 -1.24998 0 1.39998 -2.80392 1.32349e-23 1.61143 -2.75
-1.32349e-23 1.6114 -2.0003 0 1.60983 -1.25396 2.64698e-23 1.60004 -1.12789 2.64698e-23
1.59999 -0.49999 1.05879e-22 1.59999 0.250008 0 1.59999 1.00001 4.23516e-22 1.59999
1.75038 0 1.61122 2.50002 0 1.61184 3.25 -4.23516e-22 1.61197 4
-4.23516e-22 1.61199 4.75 0 1.612 5.5 0 1.612 6.25 0
1.612 7 0 1.612 7.75 5.29396e-23 1.612 8.5 2.64698e-23 1.612
9.25 -1.32349e-23 1.612 10 -1.32349e-23 1.612 -5 0 1.61199 -4.24999
0 1.61198 -3.49999 0 1.61187 -1.24999 0 1.59999 -2.75 -1.32349e-23
1.63714 -2.64195 -2.11758e-22 1.80559 -2.00012 -8.47033e-22 1.80492 -1.25741 0 1.80004
-1.19082 -7.94093e-23 1.8 -0.499992 1.05879e-22 1.79999 0.250006 2.11758e-22 1.79999 1
0 1.8 1.75023 0 1.80561 2.50001 3.38813e-21 1.80592 3.25 0
1.80599 4 0 1.806 4.75 2.11758e-22 1.806 5.5 0 1.806
6.25 0 1.806 7 0 1.806 7.75 0 1.806 8.5
2.64698e-23 1.806 9.25 0 1.806 10 0 1.806 -5 0
1.806 -4.25 -2.11758e-22 1.80599 -3.49999 0 1.80594 -2.75 -1.05879e-22 1.8057
-1.24999 0 1.8 -2 -4.76456e-22 1.98532 -1.20969 -1.65436e-23 2 -0.499993
0 2 0.250006 0 2 1 0 2 1.75 0
2 2.5 0 2 3.25 0 2 4 0 2
4.75 -1.05879e-22 2 5.5 0 2 6.25 0 2 7
5.29396e-23 2 7.75 0 2 8.5 0 2 9.25 0
2 10 -1.32349e-23 2 -5 2.21817e-18 2 -4.25 1.05879e-22 2
-3.49999 0 2 -2.74999 0 2 -1.99999 -5.29396e-23 2 -1.24999
3.30872e-24 2 0.0956945 -5.42101e-20 0.203879 0.0632748 0 0.203876 0.0625511 0
0.250042 -0.403589 6.77626e-21 0.40138 -0.405779 7.7927e-19 0.38799 -0.406379 -6.77626e-21 0.375196
-0.499567 -1.35525e-20 0.375265 0.250006 -6.50521e-19 0.375144 0.156247 0 0.375155 0.156237
9.41901e-19 0.400212 0.203129 0 0.400201 0.249796 0 0.59991 0.249852 -1.0842e-19
0.587433 0.202953 0 0.587417 0.202888 6.50521e-19 0.599901 0.625121 -6.77626e-21 0.499953
0.717439 6.77626e-21 0.504955 0.625095 6.77626e-21 0.475379 0.343596 1.0842e-19 0.599918 0.343639
0 0.574939 0.296781 0 0.574964 0.249926 0 0.574977 0.62499 -4.2826e-18
0.549927 0.624917 4.55365e-18 0.599925 0.203133 0 0.412725 -0.449046 0 0.587135
-0.496581 5.42101e-20 0.587161 0.625036 -9.32414e-18 0.40006 0.625067 1.13164e-18 0.450032 0.249704
0 0.624881 0.155871 0 0.599866 0.155839 1.95156e-18 0.624853 0.249886 1.35525e-20
0.749873 0.062411 0 0.749846 0.0624478 -4.26227e-18 0.799869 -0.312472 0 0.749804
-0.499901 -3.38813e-21 0.749824 -0.691227 0 0.30453 -0.499912 3.02221e-18 0.300065 -0.875784
-3.11708e-18 0.361353 -0.592465 -2.71051e-20 0.40036 -0.499854 0 0.350135 -0.687111 1.35525e-20
0.350117 -0.68656 -2.71051e-20 0.40021 0.437526 -1.35525e-20 0.400108 0.437522 6.77626e-21 0.350086
0.250015 -2.51399e-18 0.35011 0.625027 3.38813e-21 0.350064 -0.592287 0 0.425286 -0.498048
0 0.425444 -0.873902 5.42101e-18 0.54992 -0.496663 0 0.574746 -0.591532 0
0.574798 -0.591729 0 0.599734 -0.149108 0 0.406489 -0.149477 -5.29396e-23 0.403592
-0.149678 0 0.406489 -0.451876 -2.1684e-18 0.499977 -0.451579 0 0.487563 -0.498366
0 0.487552 -0.498515 -1.0842e-19 0.499993 0.437553 0 0.450075 0.437532 -6.07153e-18
0.425113 0.254621 -1.25361e-19 0.496697 0.26485 -5.42101e-20 0.498023 0.264831 0 0.496529
0.254636 -2.30393e-19 0.49668 0.570241 0 0.499932 0.437665 -2.71051e-20 0.474991 0.437859
-2.71051e-20 0.49988 0.437372 -1.0842e-19 0.599915 0.249722 3.25261e-19 0.649874 0.43732 -5.42101e-20
0.649899 0.624872 0 0.649914 0.624883 -3.95734e-18 0.699913 0.43734 6.83047e-18 0.699894
0.249817 0 0.699869 -0.592227 0 0.624743 -0.498071 -2.71051e-20 0.624658 -0.499769
6.77626e-21 0.69979 -0.687025 0 0.699824 -0.150854 -1.03677e-18 0.599678 -0.151059 -6.77626e-21
0.605522 -0.127339 6.77626e-21 0.605681 -0.127867 0 0.599582 -0.406139 -4.40457e-20 0.699754
-0.406113 0 0.674749 -0.499634 0 0.674774 -0.18433 -4.23516e-22 0.674527 -0.163626
-4.23516e-22 0.678958 -0.165125 0 0.674537 -0.171868 4.23516e-22 0.674524 -0.14924 3.34737e-19
0.400169 -0.125737 0 0.400165 -0.12551 0 0.393854 -0.149076 -2.11758e-22 0.393877
-0.499925 -2.61564e-18 0.325088 -0.406241 0 0.325087 -0.4062 0 0.300069 -0.124901
0 0.300062 -0.218633 -3.27294e-18 0.299673 -0.218596 1.35525e-20 0.324664 -0.124851 0
0.325085 -0.126061 7.86047e-19 0.406473 -0.0785222 1.30782e-18 0.400166 -0.126118 3.38813e-21 0.41275
-0.0785648 0 0.412729 0.240678 1.0842e-18 0.500153 0.252614 -2.1684e-19 0.498317 0.252386
1.0842e-19 0.496231 0.241035 0 0.496114 0.228892 -1.35525e-20 0.496204 0.228835 6.77626e-21
0.498715 0.229819 2.71051e-20 0.500074 0.25248 0 0.499935 0.240657 -1.6263e-19 0.500957
0.264863 0 0.500154 0.264689 0 0.500951 0.437443 0 0.549896 0.437406
[...]
POINT_DATA 2021
FIELD attributes 2
p 1 2021 float
1.95473 1.38203 2.38429 4.32034 0.0727727 0.0704959 -4.41894 -6.35573 -8.08669 -6.52624 -4.57912
0.541312 0.509185 0.0851823 0.328959 0.150872 -0.0324046 -0.0110866 0.0123963 0.0141422 0.0381881
0.0367284 0.0124168 0.0127579 -0.0269111 -0.0240001 -0.0468531 -0.041917 -0.04233 -0.0362039 -0.0249117
-0.0186414 -0.00799416 -0.00178863 0 0 0.636316 0.631751 0.631591 0.63602 0.657793
0.656874 0.729697 0.72654 0.955711 0.952944 1.67306 1.79863 1.81282 2.26608 2.51177
-4.33302 1.31186 -4.38884 0.710277 -0.133859 -6.345 0.617086 0.465013 0.164888 -0.0130483
-0.00358494 0.018772 -8.72879e-05 -0.0321002 -0.0471666 -0.0400159 -0.0224371 -0.00445369 0 0.631137
0.635223 0.654402 0.717359 0.932878 2.00696 2.07287 3.17127 3.93096 7.26401 -3.58076
-1.25964 4.54065 -6.06844 -6.06018 -2.37214 0.303155 0.855117 1.13028 1.0263 0.558832
0.554491 0.817365 0.823123 0.461798 0.148941 -0.0134841 -0.00859552 0.0145203 0.000522033 -0.028116
-0.0429747 -0.037625 -0.0221585 -0.00580334 0 0.630417 0.633992 0.650679 0.704459 0.893318
1.91451 2.19839 5.24972 5.69897 4.91426 32.642 36.541 52.035 45.9795 5.06966
5.27645 3.57602 3.46796 2.68777 4.32229 0.816186 0.839007 0.817657 0.836281 1.46301
1.85959 1.91045 0.995462 0.484232 0.378827 0.116887 -0.0157428 -0.00768736 0.0182561 0.0102311
-0.0150644 -0.0309803 -0.0294269 -0.0174573 -0.00462732 0 0.629506 0.632462 0.646144 0.689298
3.38599 3.90488 4.8407 4.89718 34.8077 33.1555 45.1809 51.2888 0.832347 0.814511
0.988772 1.81242 2.76282 1.21436 0.0120359 -5.39339 -5.62782 -2.88189 -0.26651 0.208161
0.0679013 -0.0312881 -0.0220046 0.00737615 0.00645615 -0.014164 -0.0296667 -0.0303341 -0.0206721 -0.00914602
0 0.6285 0.630787 0.641204 0.672958 0.769387 2.88914 1.84481 5.55872 3.57709
0.945692 -0.142476 0.730912 0.389085 0.352691 0.185888 -1.71052 0.791481 0.36056 -1.01046
-0.436413 0.10395 0.0659011 -0.023113 -0.0245433 0.00260426 0.00524664 -0.0120793 -0.0267744 -0.0283823
-0.0198347 -0.00883983 0 0.6275 0.629126 0.636233 0.656413 0.703531 0.725332 0.94901
1.23321 0.405371 0.644855 0.635622 0.641123 0.682467 0.650341 0.593205 0.409028 0.0819121
-0.58574 -0.416693 0.0459145 0.0637609 -0.0206169 -0.0311931 -0.00600266 -0.000187439 -0.0137954 -0.026364
-0.0274177 -0.0190783 -0.00845062 0 0.626606 0.627627 0.631684 0.59257 0.628933 0.629003
0.613825 0.518337 0.449071 0.0954882 -0.451945 -0.383082 -0.00472858 0.0516249 -0.0223209 -0.0354298
-0.0109364 -0.00289199 -0.0136496 -0.0244097 -0.0250851 -0.0172996 -0.00765218 0 0.625903 0.626421
0.628031 0.517829 0.627988 0.617213 0.592689 0.47857 0.447826 0.1022 -0.379496 -0.364089
-0.0332204 0.0454501 -0.0206723 -0.0349165 -0.0119747 -0.00400753 -0.0138071 -0.023738 -0.0243684 -0.0171129
-0.00817215 0 0.625449 0.625619 0.62561 0.621341 0.47743 0.586174 0.445086 0.104347
-0.356579 -0.357957 -0.042027 0.0437476 -0.0199208 -0.0346832 -0.012557 -0.00496975 -0.0145659 -0.0241474
-0.0246433 -0.0174448 -0.00858757 -0.00158848 0.625289 0.62533 0.624736 0.61872 0.585644 0.464435
-10.8076 -11.699 -12.3557 70.1522 59.6197 43.489 29.6782 3.14761 2.04923 4.82584
5.40187 3.3289 3.51177 4.71256 4.26185 1.95766 1.67759 2.07844 2.58384 3.14692
2.86838 3.27219 2.1826 1.87681 6.45197 56.7345 39.8837 1.93888 2.20281 3.21663
3.10306 1.11888 -5.17784 -12.44 -10.6809 -2.37827 8.99525 7.07532 11.8694 4.82553
17.6022 20.8191 9.22879 10.6325 2.48983 1.47894 1.08928 1.67827 19.8916 37.0365
5.7504 40.0578 20.6581 19.1715 -61.4301 -61.2168 -61.4352 68.68 68.5565 47.793
45.0589 3.41303 3.05973 -6.01129 -1.19669 -1.30053 -6.06289 2.51957 3.92666 3.87089
2.65219 1.57197 1.73967 1.66985 0.96161 0.752682 -1.75612 17.3749 28.5831 13.796
7.53755 -53.4868 -52.9077 -57.997 -59.1127 14.7371 20.0112 19.0079 -44.1977 -41.3783
-42.9985 -43.401 -60.9589 -59.8191 -59.585 -60.2794 16.5682 15.6716 11.8593 -30.4412
-28.9392 -46.526 -38.2611 -61.2244 -47.8122 -61.2481 -50.4327 11.1791 3.72342 10.2299
11.9249 9.61348 9.84186 10.0867 3.89469 11.3145 -0.688096 -0.990782 3.48138 3.16608
3.96852 4.16908 48.0414 68.5998 -58.4613 -53.9697 6.12071 11.344 -59.1196 -60.0294
-58.9292 2.80311 5.7844 4.53367 4.80516 -31.9096 -40.6043 -46.3995 -28.0776 64.4824
60.8411 41.7897 41.5733 -45.3866 -57.9401 -11.9732 -8.51491 -0.219351 -24.9713 -43.7155
43.3515 44.7044 64.7066 66.8419 -57.5348 -57.4271 -58.3083 -0.379268 -12.4688 -15.4886
-13.6738 -24.7658 -28.9079 -57.8868 44.2529 22.0675 22.3895 11.849 12.1515 12.375
13.3148 22.2957 44.8208 11.0379 12.7036 12.1167 13.4507 -64.9491 -64.874 -62.8986
-62.8583 -63.0842 -63.4929 -63.7568 46.0016 66.9375 -65.1014 -64.3132 -65.2846 -65.1424
-30.5468 -36.3179 -33.5876 -12.9687 -0.639618 -4.54248 -54.537 -53.6528 -62.7343 -11.9627
1.76697 1.43443 -12.3077 -64.558 -61.9177 -55.1809 -11.0777 -8.4552 -1.71144 3.60744
-10.9283 -9.03938 -23.4864 -45.5088 -50.0811 -44.6589 -57.2604 -57.3467 -58.4869 -6.59053
-21.2199 -22.7947 -7.91381 -59.3618 -56.9249 -59.7561 -5.57343 -11.52 -19.2174 -9.93592
67.8608 47.2123 -53.3166 -53.3835 -57.1587 -57.6329 -56.819 -53.0446 -57.9545 -58.7956
-57.7577 -62.4373 -62.4962 -62.6374 -29.5667 -73.4461 -92.2763 -97.2411 -100.293 -99.9531
-46.3073 -51.5908 -55.7713 -49.7625 -51.5154 -100.375 -101.742 -72.8691 -35.4697 -61.8628
-61.9872 -62.0785 -61.0447 -62.6572 -64.3378 -64.042 -63.457 8.67174 8.02107 10.7292
-60.2092 -59.6935 -60.0728 -59.1168 -59.3237 -58.9139 -59.4345 -57.5856 -57.5396 2.85637
2.58973 1.83525 2.0673 2.34144 2.85905 -0.461013 -59.0178 -60.384 -60.9152 6.20262
6.73243 3.23417 1.37456 3.63882 -30.8939 -37.9229 -36.6864 -29.9263 -53.108 -53.353
-57.6807 -58.2321 -57.1072 -58.8512 -44.4062 -49.6818 -48.8027 -41.8616 -46.8959 -49.6634
-49.5705 -49.9517 -49.1502 124.113 131.979 147.106 147.193 -62.8385 -60.4593 -61.4198
-63.8199 -64.9062 7.2383 5.00358 6.41157 7.94386 -12.4064 -6.55144 -9.83363 -12.7584
-15.4879 -44.4632 -41.7861 -29.3631 -31.5492 -36.7507 -44.4719 -21.9344 -22.7885 31.9244
42.1098 52.8556 38.4965 23.5861 20.5204 35.1913 27.3569 0.923112 1.09246 2.1924
33.6268 24.5811 16.4786 21.4073 3.16095 3.86208 4.53211 4.51157 1.39328 4.74895
4.78141 2.43097 -8.11867 -6.47132 -0.895647 -9.40088 15.0581 9.40839 11.0874 -51.5825
-56.0413 -56.1122 -51.728 -77.8834 -76.6913 -79.7222 -45.9999 -10.2556 -16.5875 -24.8003
-57.7246 -54.4533 -57.3696 -58.6939 -76.4415 -76.3882 -60.3357 -61.5813 -52.3873 -55.8287
-57.9634 -56.9876 3.43032 3.43441 0.589801 5.93071 5.57959 4.27917 5.15177 5.65261
6.07669 -54.5361 -50.8453 -64.8461 -64.1586 78.6576 93.6031 85.1759 111.764 106.018
88.5815 89.9738 161.636 163.871 152.976 121.372 98.2758 104.252 97.1459 117.358
-12.8221 -27.2955 -31.8031 -5.55807 -26.5091 -53.681 -42.766 -6.06585 94.3355 101.787
87.3407 78.8298 97.1269 88.9062 108.118 148.756 158.506 167.587 165.241 106.927
103.253 159.921 -39.8035 -11.1483 -47.0146 -33.9505 -55.1619 140.224 140.057 115.664
110.687 110.244 115.518 139.522 138.882 108.081 167.047 170.664 171.817 172.107
173.601 186.486 186.665 174.69 173.158 -33.6951 -42.2735 -33.8109 -61.176 -54.6149
-44.1341 -42.6303 -41.0667 -25.7371 5.11149 -0.320567 2.09085 173.283 175.222 187.024
172.299 186.364 186.982 175.129 172.186 179.529 181.619 170.179 168.954 180.04
167.866 171.068 182.552 -58.2786 -44.1468 -41.9875 -58.7842 -59.7211 -60.2761 -40.8475
-51.8766 -40.886 -41.8392 -51.6513 -51.538 -5.50137 -11.4934 -28.5763 -28.519 -33.8725
-45.8651 -33.2283 -32.3242 -44.7616 -20.0337 -16.2793 -18.9596 115.537 140.185 138.236
139.126 114.854 109.52 170.087 169.93 170.475 167.729 136.549 108.655 113.803
137.281 -57.1853 -52.8433 -54.6478 -53.238 -58.2556 -52.6904 89.3819 92.4744 77.5523
-12.9021 -4.34117 -4.34366 -18.1925 55.3257 57.316 71.1946 74.5702 -58.4552 -57.2625
-57.7837 -58.4578 -60.1363 -60.4728 -60.8859 -60.9219 -63.9115 -63.9052 -64.0072 -64.6816
-131.653 -105.03 -74.6587 -91.7855 -94.2552 -94.0987 -94.0945 -78.4291 -81.2681 -94.7762
-72.5212 -88.2171 -135.194 -138.57 -130.78 -98.1839 -99.143 -62.7139 -62.015 -62.6342
-63.807 -63.7592 -61.818 -61.5346 9.36372 10.2205 13.9956 17.4281 13.8351 -53.799
-52.4235 -46.7724 -47.7416 -44.5298 -44.2448 -44.224 -44.1999 15.9694 15.039 19.4551
7.01227 6.56996 8.13132 8.62523 8.63337 6.89127 5.56277 6.64026 10.1448 12.517
10.8869 -1.6874 -4.72239 -6.98085 4.70732 2.57262 1.48135 4.17774 4.96731 -58.3718
-59.581 -61.0254 -60.1792 -55.716 -56.7416 13.9757 17.0432 18.401 -45.4811 -49.7739
-50.4687 -45.0734 -44.1989 12.2728 11.9187 11.9639 11.0798 7.88859 -4.7121 -3.27647
7.00074 2.97694 2.62227 -55.6306 -56.1646 145.836 147.841 140.196 136.297 112.284
117.468 124.917 120.259 184.312 185.533 181.988 178.233 -63.7119 -63.895 -58.8077
-58.5274 169.617 183.308 184.99 172.946 174.382 186.457 170.999 182.117 169.582
179.373 -19.758 -22.8014 -27.7343 -32.5402 -30.9498 -27.344 -5.60731 -0.239527 -1.19597
-6.33744 -11.192 -10.3321 -1.2432 -9.50356 -10.3986 -15.5871 -18.8756 -8.69163 -9.38789
-25.9341 -20.9892 -9.77252 -0.458595 -3.06221 7.0219 -3.10932 7.00634 8.1376 3.18124
3.42075 4.18608 3.63139 8.5048 6.56176 4.52371 6.27357 -19.1336 -15.1432 -26.0593
-20.3216 -59.2532 -60.8399 -61.4518 -61.5607 2.94736 3.23338 5.12497 5.52823 4.35894
4.98967 -15.2435 -41.271 -58.4982 -66.9515 -54.4546 -32.8873 -61.7437 11.4873 10.9148
10.9464 -4.16404 -1.25487 14.271 20.1805 7.15307 24.9629 21.6698 10.8172 0.298334
7.56256 9.3741 14.7716 12.5305 3.62938 -59.9092 -44.2643 -47.8664 -10.5929 -40.3916
-22.0535 -56.468 -79.4755 107.537 91.5118 105.308 107.23 111.779 110.761 172.754
171.88 173.132 172.47 171.121 185.789 185.79 185.016 -65.2212 -65.1253 174.496
-60.4592 -60.4566 -60.8568 -60.8874 -60.7854 -63.8575 -151.991 -140.047 -139.895 -135.802
-158.965 -139.765 -135.066 -135.338 -122.088 -117.626 -82.4094 -74.9101 -75.7969 -72.803
-122.145 -123.175 -60.7445 -59.9142 -58.8803 -60.8661 11.8828 9.34039 12.1658 9.51723
12.6786 13.6198 14.1353 15.3531 15.9541 -59.0437 -57.683 -59.5059 -57.596 -55.4038
-54.785 -55.2179 -57.4339 -3.93907 1.06709 -0.174587 -2.58218 7.6392 7.9306 5.92792
5.23258 6.71356 7.74423 7.12699 6.0595 -0.654219 6.85398 5.44088 5.15111 9.85946
11.6863 10.4197 12.8454 12.5216 -57.8346 -58.6151 -51.2072 -51.3013 -50.5258 -49.3959
-49.5434 -50.9444 -51.699 -51.7015 -51.51 -47.8541 -48.8303 -68.7287 -68.1308 -53.442
-55.5471 -73.1258 -64.3621 -74.4321 -121.014 -125.823 -133.04 -74.5401 -92.3824 -103.508
-75.648 -94.003 128.057 112.854 147.853 151.114 -61.925 -61.8026 -62.5396 -62.5056
-59.0085 143.993 167.866 146.229 -47.27 -46.4556 -47.225 -47.9465 -48.6216 -48.6175
-48.5921 -45.8553 -12.623 -14.2441 -16.6791 -15.5946 -18.374 -21.1839 -23.5614 -21.092
-22.2539 75.3939 86.1814 -55.6845 51.8035 77.2369 65.6425 74.4388 60.0021 12.2451
8.65953 44.4937 35.6408 6.75426 7.66582 3.24597 4.44825 4.04383 6.07242 5.21742
5.70335 6.16818 6.7115 -48.545 -48.4722 -47.7106 -48.0816 -0.457893 -1.90705 -2.67753
2.35539 5.28105 4.66542 6.718 6.08959 -47.4801 -48.1661 -48.018 137.629 135.62
171.002 184.573 188.984 189.278 186.702 185.13 -63.4578 -63.4253 -63.5594 -63.9634
-59.2338 -44.1675 -45.2967 -45.3017 -44.1784 -44.8158 -46.476 -58.8289 -58.8484 -59.6408
-63.4429 -63.7426 -63.7096 -64.0324 -63.7721 -62.8552 -112.159 -107.554 -137.795 -114.956
-136.509 -124.382 -126.441 -136.093 -58.9089 -63.1972 -60.4639 -62.1972 15.8609 14.372
13.5593 14.8238 14.7417 15.6392 -35.6158 -34.8703 -29.1034 -28.5151 -41.1564 -41.3147
-46.5757 -46.3926 -52.8292 -52.8526 -45.1374 -53.9421 -53.5959 -3.57363 1.06682 -8.3685
-1.88246 -0.767554 6.85494 6.87495 7.34867 2.71834 8.25082 6.34277 7.08288 8.54303
9.03361 9.17218 9.32207 10.2959 10.0794 -0.686289 10.3343 11.3898 12.5398 -1.72131
-2.64126 -3.04103 -1.78884 -63.3186 -62.6184 -59.914 -60.5901 -51.4313 -50.8466 -45.4338
-51.1899 -52.5756 -57.0353 -58.7028 -56.8225 -56.7165 -56.7994 -47.1785 -53.7194 -45.7435
-1.19138 -55.1923 -56.0311 140.271 131.003 128.711 128.628 129.01 113.368 105.804
188.455 187.949 186.94 -53.6994 -54.2734 2.62719 3.30125 4.3439 -26.8302 -28.0355
186.067 186.854 180.406 183.442 182.129 181.771 -37.8988 -33.585 0.568666 -4.18395
-2.59698 0.590404 -20.9767 -9.63873 -6.91263 -9.45491 -15.9049 -4.88896 80.6001 56.5416
61.2867 21.2545 21.7354 68.155 110.756 10.8709 7.35399 -3.10977 -3.1376 6.41836
6.95878 7.21145 5.89319 6.20896 25.444 17.6434 1.66904 21.1526 -3.73294 3.682
7.60456 7.55657 68.3098 110.368 -51.7392 -53.8116 19.5009 89.759 107.841 101.241
93.6711 109.109 110.073 127.313 134.963 143.642 -63.8461 79.4892 71.2272 48.0765
14.3612 20.0374 18.2386 -72.4092 -60.7909 -60.7869 -60.7878 -57.1191 -57.1327 -61.79
-57.0856 -61.4248 -62.2157 24.6096 -6.19568 5.44882 9.92554 10.7699 -3.8775 -4.0744
-5.5006 -51.5096 -51.7039 0.149704 2.56138 2.88126 -61.4873 -60.4341 -60.5173 8.59274
8.43731 3.37867 -59.8411 42.2037 47.3417 -68.8841 -60.3435 14.8911 12.4983 7.64923
6.21192 4.45758 7.26504 6.18156 -47.7602 -48.0572 -48.0435 -47.8831 -52.3844 -48.3869
-47.7667 -56.3978 -57.0177 -57.1992 -56.2531 -57.6433 -56.8835 -56.9862 -56.4305 3.80615
-47.7682 -54.4986 -53.4948 100.067 128.468 144.179 154.587 167.662 162.419 160.217
148.266 187.907 -58.6834 -61.6624 -57.2475 -5.17783 -8.26643 -0.580248 -48.2395 -47.9689
-48.7872 -49.0381 -53.067 -46.0049 -46.8856 -45.7412 -45.849 -46.6203 29.8645 21.4736
-109.306 -116.761 -116.724 -117.372 -117.715 -76.577 -98.9529 -76.5805 15.4171 18.2128
-8.71664 12.8332 11.6408 -10.1656 -12.2019 1.76932 -1.3373 -2.83663 -4.20264 -6.50023
-7.8933 -5.73329 0.448544 -0.215466 -4.97454 -1.39985 0.112934 -2.27671 -4.45733 15.4286
19.0964 -51.1853 6.4338 9.43658 6.98644 12.5848 4.06255 7.48568 10.1005 11.3719
0.391943 0.572507 4.76586 4.30378 -5.00339 -7.01346 -9.44995 -9.38361 1.63815 -0.438143
3.0279 9.30339 17.1394 19.0831 8.50381 4.39356 1.28684 1.10913 6.54057 11.1996
12.1344 13.08 11.6948 4.44482 -4.88839 4.3087 -4.02197 0.52878 -4.9142 0.699135
11.5293 8.47202 13.0409 5.44664 10.0546 11.9599 10.8063 10.4756 6.59677 9.2963
9.84353 10.0586 5.98835 7.05718 6.83695 4.39621 -8.91322 -12.9992 -10.464 3.64014
3.92093 6.82119 3.05198 -12.1085 -12.8824 0.0955705 6.40007 4.64422 -2.71731 4.4062
-140.049 -140.054 -140.005 12.2014 -59.4827 -57.5331 -57.4862 4.94561 9.11386 5.03121
7.01093 12.3417 -59.6864 -59.6134 -58.3941 -57.4625 -57.1456 -56.3815 -56.4679 -64.7097
-112.389 -116.871 -109.88 -117.517 -48.1457 -48.5254 -46.1581 -45.8787 -45.787 -45.8708
-19.4573 -19.5033 -21.5418 -48.9535 -48.7044 -48.3838 3.9684 0.320646 3.55362 3.27622
-48.2807 -49.1228 -49.0979 141.013 150.422 -63.6014 -53.6803 15.5362 16.1466 11.2563
6.228 9.36728 14.5508 4.26708 3.57095 5.13209 3.76758 -47.9581 -59.7972 -59.523
-57.664 7.24888 16.6108 11.7054 3.69467 3.82284 10.4823 9.4606 9.97636 9.3163
10.6099 12.845 10.4798 6.19517 7.70998 7.63637 -52.8635 -49.002 -47.1586 92.1787
81.6814 85.2545 68.4784 74.2126 -4.22588 -2.22101 0.757845 -1.02895 7.74575 8.20802
8.0313 8.01363 8.06008 7.60423 6.62611 117.669 107.46 95.4082 -76.5023 -59.3146
-57.8879 -57.1986 -56.5608 -56.6903 -56.2972 163.434 139.838 161.873 161.999 10.8416
8.24098 13.2325 14.1059 7.81698 9.61064 7.91077 7.48704 6.60201 2.91975 -2.90292
4.61495 5.27229 5.7438 3.93339 6.72838 15.2857 9.09373 -15.8206 17.9947 11.2103
4.76444 7.67183 16.8806 9.41999 -17.3699 -18.1478 -16.2042 -5.75018 -8.45648 -16.2165
7.66947 4.10512 -18.7206 -19.0551 3.19391 1.39335 -4.44436 -5.31611 -52.0466 -44.1724
15.542 1.12976 -0.820703 -1.17293 5.29786 4.97652 5.73814 5.24963 5.17781 4.6692
-2.74218 5.39757 6.90533 -3.25732 4.32861 3.11276 5.93865 5.07014 4.61116 107.339
88.1673 122.918 124.656 3.34212 2.90536 0.644021 -52.2757 3.24534 5.28348 4.91157
-9.07335 -11.8045 -0.0874972 5.122 5.9151 5.56468 9.07152 4.44633 7.76398 2.22423
34.2932 -47.5459 -57.0807 -56.5901 -56.5166 -56.5664 -7.47063 -9.37746 -15.0926 -14.9537
-14.9693 -4.83107 5.5867 0.864038 3.16 4.01557 -0.48377 -0.380765 -2.577 -3.21054
-15.1001 -8.56913 -7.59913 -14.8414 -7.77518 -15.4448 2.40019 -12.7502 -14.9198 -4.74488
0.0286746 4.96101 4.60875 4.52284 9.26806 -2.80057 5.02436 -3.11867 -1.93792 4.27918
-3.02848 6.37845 4.29634 -9.33738 8.16923 -1.59745 5.38338 0.747894 1.24202 4.43519
4.64091 3.93684 4.4816 0.512987 7.36757 8.01655 3.78753 5.0355 -0.301911 2.96217
11.3548 5.74728 -0.66447 -0.824786 1.17736 172.825 176.756 176.28 180.868 169.307
168.384 172.963 179.776 180.758 66.9355 71.2939 52.1953 -60.4025 -41.5348 -38.1393
-35.784 -28.5767 -50.3657 -50.7323 -50.4222 -57.8358 -53.7949 100.043 154.762 162.359
155.524 147.342 -63.3682 -63.2279 -62.5551 -63.1015 -60.8308 -63.1874 -59.2735 -59.5325
-59.3964 7.58676 3.02754 171.202 -14.9541 185.852 190.089 189.242 -54.8798 -49.9968
182.747 186.149 186.051 -18.8461 -49.8304 86.0065 -57.0404 -57.2706 -57.7715 -57.6642
-56.7163 189.254 0.863238 189.452 185.452 189.04 8.62322 -60.3246 109.451 108.759
-59.992 2.77869 -55.6475 -58.9109 -55.9653 -140.47 139.253 -56.7634 158.611 -56.3097
-117.797 -117.712 74.0549 6.90655 2.08832 168.36 164.979 -14.2234 139.797 190.923
189.83 185.088 189.092 190.674 189.628 172.713 190.988 186.624 189.786 191.003
0.636333 0.631756 0.657783 0.728782 0.946432 1.65336 2.23665 -4.25764 1.30032 0.0396147
-4.30809 -6.17335 0.449471 0.0591779 -0.0387115 0.0127505 0.039877 0.0137477 -0.0264212 -0.047187
-0.0432052 -0.0259745 -0.00897763 -0.000654603 -51.6999 -50.9656 -130.836 -131.416 -46.3337 -47.103
-48.606 -46.2285 -47.0171 -48.6445 -48.9771 -45.6421 -97.5782 -77.3816 -48.0679 -45.8405
-76.7997 -48.0223 -50.3099 -50.7212 -49.6298 -94.5216 -107.305 -126.399 -116.868 -116.599

U 3 2021 float
20.0102 -0.0475585 -0.214602 20.0477 -0.0321244 -0.0731302 19.931 -0.00737079 -0.0964861 19.941 -0.0589162
-0.604803 20.0222 -0.0626256 0.0427414 20.0225 -0.0624964 0.0427815 20.1754 -0.0824967 0.0600688
20.2413 -0.0911078 0.0679947 20.2874 -0.0958862 0.150237 20.3053 -0.120098 0.272292 20.2234
-0.122208 0.216011 19.9625 -0.0524269 0.0230687 19.9995 -0.0584716 0.021266 20.0069 -0.0569387
0.00974954 19.8731 -0.031943 0.0215706 19.8718 -0.0280977 0.0180166 20.0101 -0.0560684 0.00410972
19.8753 -0.0257891 0.0134563 20.0086 -0.0548849 0.00265323 19.8748 -0.0237391 0.0128991 20.0068
-0.0538934 0.00228835 19.8736 -0.0219946 0.0131704 20.0055 -0.0530892 0.00221253 19.8729 -0.0205543
0.0134483 20.0045 -0.052443 0.00214874 19.8723 -0.0193201 0.0135615 20.0033 -0.0518858 0.00202531
19.8718 -0.0181888 0.0135413 20.0021 -0.0513729 0.00181293 19.8711 -0.0171571 0.0133851 20.0008
-0.0508964 0.00157089 19.8705 -0.0161771 0.013231 19.9996 -0.0503318 0.00122302 19.8701 -0.0151149
0.0128264 19.8702 -0.0145789 0.0124488 19.9996 -0.0501032 0.000964971 19.9996 -0.000363131 3.25258e-05
20 0 0 20 0 0 19.9996 -0.000364758 8.28103e-05 19.9983
-0.000827806 9.64327e-05 19.9984 -0.000842355 0.00028756 19.9942 -0.0016501 0.000366805 19.9941 -0.00162406
0.00100691 19.9788 -0.0030067 0.000297749 19.9796 -0.00333846 0.00354519 19.9472 -0.00611313 -0.00914424
19.9367 -0.0068497 -0.00849069 19.9395 0.00152179 -0.0145456 19.9293 -0.00606893 -0.0296933 19.9074
0.00456518 -0.061366 20.2406 -0.0764097 0.00375451 20.0523 -0.0302352 -0.0558028 20.2429 -0.0755106
0.00724217 19.945 -0.0993525 0.0313173 20.0365 -0.125218 0.0868579 20.241 -0.0910774 0.0674851
19.8752 -0.0381631 0.0273197 19.2809 0.135333 0.0180755 19.3128 0.134002 0.0186064 19.3422
0.128918 0.0183038 19.3646 0.124747 0.0188935 19.3838 0.120721 0.0195127 19.402 0.116777
0.0198468 19.4191 0.112999 0.0199052 19.4348 0.10951 0.0198256 19.4497 0.106268 0.0196623
19.4629 0.1034 0.0195189 19.4781 0.100395 0.0191441 19.4876 0.0986475 0.0187994 20
0 0 19.9996 -0.000367 0.000143523 19.9985 -0.000847279 0.000503442 19.9945 -0.00164051
0.0017343 19.98 -0.00350484 0.00600283 19.9196 -0.00951691 0.00994497 19.9198 -0.00865794 1.21145e-05
19.8515 -0.0179328 -0.0963135 19.7936 -0.0221477 -0.0700405 19.9628 -0.0549174 -1.01837 20.4472
-0.0758359 -0.9164 20.2244 -0.0587455 -0.499126 19.9361 -0.0589516 -0.634052 20.3283 -0.167453
0.468974 20.3287 -0.168333 0.472569 20.1248 -0.253653 0.592588 20.0016 -0.240011 0.293355
19.9023 -0.20188 0.142307 19.75 -0.124306 0.0531258 18.7422 0.104739 0.129987 19.271