# vtk DataFile Version 2.0
sampleSurface
ASCII
DATASET POLYDATA
POINTS 2021 float
-0.500032 0 0.11501 -0.499951 3.38813e-21 0.0392727 -0.789037 8.47033e-21 0.120673 -0.500013 -1.35525e-20
0.193965 1.00003 0 0.0485099 1.00003 0 0.0478584 0.475202 0 0.0353615
0.250044 1.41878e-20 0.0305359 0.2506 -5.42101e-20 0.117067 0.251301 0 0.203885 0.364989
0 0.203772 1.75002 0 0.113255 1.75002 0 0.0564279 2.50001 6.89146e-18
0.059229 2.21354 0 0.250758 2.50001 0 0.252875 3.25001 -3.47927e-17 0.0598775
3.25001 -1.69407e-21 0.253888 4.00001 5.60566e-18 0.0599857 4 0 0.253986 4.75
-1.79088e-17 0.0599988 4.75 8.47033e-22 0.253998 5.5 -2.79246e-17 0.0599999 5.5 -4.23516e-22
0.253999 6.25 1.01187e-17 0.06 6.25 0 0.254 7 2.93732e-17 0.06
7 0 0.254 7.75 -2.65294e-17 0.06 7.75 0 0.254 8.5
1.8923e-17 0.06 8.5 0 0.254 9.25 -2.88552e-17 0.06 9.25 -5.29396e-23
0.254 10 -2.64698e-23 0.254 10 0 0.06 -4.24997 0 0.0599042
-5 0 0.0599861 -5 0 0.253986 -4.24997 0 0.253912 -3.49995
0 0.0593815 -3.49994 0 0.253441 -2.74993 0 0.0570188 -2.74991 0
0.251316 -1.99991 0 0.0492276 -1.99987 0 0.242776 -1.24992 -1.69407e-21 0.03
-1.24985 1.23328e-17 0.222327 -1.24989 3.38813e-21 0.125756 -0.874924 2.08116e-17 0.03 -0.874929
0 0.122356 -0.124951 -8.47033e-22 0.03 -0.499941 0 0.03 -0.124922 -8.47033e-22
0.0385291 1.00021 0 0.231242 0.625368 0 0.203537 0.25004 -2.11758e-22 0.03
1.75003 0 0.247334 1.92873 1.69407e-21 0.441438 2.50001 0 0.447397 3.25
-1.69407e-21 0.447898 4 0 0.447986 4.75 0 0.447997 5.5 -4.23516e-22
0.447999 6.25 4.23516e-22 0.447999 7 0 0.448 7.75 -1.05879e-22 0.448
8.5 0 0.448 9.25 0 0.448 10 -2.64698e-23 0.448 -5
-8.47033e-22 0.447985 -4.24997 0 0.447919 -3.49993 0 0.4475 -2.74988 0
0.445609 -1.9998 6.77626e-21 0.437758 -1.24969 1.61411e-17 0.417681 -1.24976 -6.77626e-21 0.31973
-0.875161 7.70461e-18 0.216228 -0.875403 0 0.312476 -0.499924 -8.74138e-19 0.250039 -0.312433
0 0.250037 -0.312436 0 0.200025 -0.499924 0 0.200026 0.250062 3.38813e-21
0.24921 0.250039 -1.69407e-21 0.250046 0.250032 0 0.300069 0.437526 3.05948e-18 0.300066
0.625026 0 0.30005 1.00072 -8.23994e-18 0.326497 1.00196 0 0.423 1.75013
0 0.439575 1.75013 1.77877e-20 0.448245 1.00135 0 0.537141 1.00002 0
0.61834 1.74999 2.71051e-20 0.633055 2.49999 -3.38813e-21 0.641448 3.25 0 0.641907
4 -1.69407e-21 0.641985 4.75 -8.47033e-22 0.641996 5.5 -4.23516e-22 0.641998 6.25
0 0.641999 7 0 0.641999 7.75 0 0.642 8.5 5.29396e-23
0.642 9.25 -5.29396e-23 0.642 10 0 0.642 -5 0 0.641985
-4.24997 -1.69407e-21 0.641926 -3.49993 0 0.641557 -2.74988 0 0.639897 -1.99989
6.77626e-21 0.63382 -1.25099 2.55465e-18 0.614606 -1.25 -2.71051e-20 0.515981 -0.878244 0
0.50789 -0.875961 2.71051e-20 0.459694 -0.875609 0 0.410432 -0.498432 0 0.400603
-0.498071 -1.70762e-18 0.413126 -0.450805 0 0.413349 -0.45095 0 0.400955 0.250009
1.89735e-19 0.412703 0.25 2.71051e-20 0.425212 0.296872 1.00289e-18 0.425187 0.343754 -2.71051e-20
0.425153 0.343763 0 0.400146 0.250006 0 0.400175 1.00162 1.41488e-17 0.520353
-2 4.23516e-22 0.820145 -2.09502 -2.11758e-22 0.830091 -2 0 0.829497 -1.25123
0 0.813251 -1.25126 0 0.713737 -1.25101 6.77626e-21 0.62198 1.00059 0
0.714169 1.00094 0 0.809205 1.75018 0 0.82775 2.5 0 0.835521
3.25 0 0.835917 4 -1.69407e-21 0.835986 4.75 -8.47033e-22 0.835996 5.5
0 0.835998 6.25 0 0.835999 7 0 0.835999 7.75 0
0.836 8.5 0 0.836 9.25 0 0.836 10 0 0.836
-5 -8.47033e-22 0.835986 -4.24997 0 0.835935 -3.49995 0 0.835616 -2.74991
0 0.83419 -0.970118 0 0.703382 -0.87455 0 0.699864 -0.874264 -2.71051e-20
0.649852 -0.874033 -2.71051e-20 0.599873 -0.49698 0 0.599585 -0.497345 -9.21572e-19 0.612046
-0.450014 0 0.611892 -0.44938 2.71051e-20 0.599454 -2.00002 0 0.84097 -1.84639
-3.38813e-21 1.02215 -1.25185 0 1.01276 -0.896512 -3.38813e-21 0.900668 -0.908183 6.77626e-21
0.801076 -0.904022 -1.86347e-20 1.00093 0.624925 0 0.799916 0.249931 0 0.799891
0.249978 0 0.899916 0.249997 0 0.999939 0.999987 0 0.999957 1.75061
-2.1684e-19 1.02409 2.50003 0 1.0296 3.25 -1.69407e-21 1.02993 4 0
1.02999 4.75 0 1.03 5.5 0 1.03 6.25 2.11758e-22 1.03
7 0 1.03 7.75 0 1.03 8.5 5.29396e-23 1.03 9.25
0 1.03 10 0 1.03 -5 0 1.02999 -4.24998 0
1.02994 -3.49996 -8.47033e-22 1.02968 -2.74996 0 1.02849 -2.00026 0 1.02458
-0.87482 0 0.799893 -0.87491 0 0.899919 -0.49993 0 0.799862 -0.499958
7.6233e-19 0.849889 -0.312476 0 0.849885 -0.312472 0 0.799853 -1.25001 8.04681e-21
1.19601 -0.499979 5.29396e-23 1.10737 -0.731886 2.11758e-22 1.19997 -0.499981 0 1.19997
-0.124987 0 0.999933 -0.477759 -5.29396e-23 0.999933 -0.487556 -1.45584e-22 1.09995 0.250008
0 1.19997 1 0 1.19997 1.7507 0 1.22203 2.50003 -1.35525e-20
1.22368 3.25 0 1.22394 4 0 1.22399 4.75 4.23516e-22 1.224
5.5 0 1.224 6.25 2.11758e-22 1.224 7 0 1.224 7.75
1.05879e-22 1.224 8.5 0 1.224 9.25 0 1.224 10 2.64698e-23
1.224 -5 4.23516e-22 1.22399 -4.24999 -4.23516e-22 1.22395 -3.49998 0 1.22374
-2.75001 0 1.22279 -2.00077 0 1.21965 -1.24997 4.23516e-22 1.19997 -0.499969
-5.29396e-23 0.999933 -0.874942 0 0.999936 -0.499979 -1.32349e-23 1.09995 -2.75001 0
1.36967 -3.18711 4.23516e-22 1.41751 -2.75001 4.23516e-22 1.4171 -2.00072 3.38813e-21 1.29692
-2.00065 0 1.41474 -1.25823 6.35275e-21 1.40014 -0.980416 0 1.39998 -0.499986
0 1.39998 0.250009 0 1.39998 1 0 1.39998 1.75054 0
1.41682 2.50002 -1.35525e-20 1.41776 3.25 0 1.41796 4 4.23516e-22 1.41799
4.75 0 1.418 5.5 0 1.418 6.25 0 1.418 7
0 1.418 7.75 0 1.418 8.5 0 1.418 9.25 0
1.418 10 0 1.418 -5 0 1.41799 -4.24999 0 1.41797
-3.49999 -4.23516e-22 1.41781 -1.24998 0 1.39998 -2.80392 1.32349e-23 1.61143 -2.75
-1.32349e-23 1.6114 -2.0003 0 1.60983 -1.25396 2.64698e-23 1.60004 -1.12789 2.64698e-23
1.59999 -0.49999 1.05879e-22 1.59999 0.250008 0 1.59999 1.00001 4.23516e-22 1.59999
1.75038 0 1.61122 2.50002 0 1.61184 3.25 -4.23516e-22 1.61197 4
-4.23516e-22 1.61199 4.75 0 1.612 5.5 0 1.612 6.25 0
1.612 7 0 1.612 7.75 5.29396e-23 1.612 8.5 2.64698e-23 1.612
9.25 -1.32349e-23 1.612 10 -1.32349e-23 1.612 -5 0 1.61199 -4.24999
0 1.61198 -3.49999 0 1.61187 -1.24999 0 1.59999 -2.75 -1.32349e-23
1.63714 -2.64195 -2.11758e-22 1.80559 -2.00012 -8.47033e-22 1.80492 -1.25741 0 1.80004
-1.19082 -7.94093e-23 1.8 -0.499992 1.05879e-22 1.79999 0.250006 2.11758e-22 1.79999 1
0 1.8 1.75023 0 1.80561 2.50001 3.38813e-21 1.80592 3.25 0
1.80599 4 0 1.806 4.75 2.11758e-22 1.806 5.5 0 1.806
6.25 0 1.806 7 0 1.806 7.75 0 1.806 8.5
2.64698e-23 1.806 9.25 0 1.806 10 0 1.806 -5 0
1.806 -4.25 -2.11758e-22 1.80599 -3.49999 0 1.80594 -2.75 -1.05879e-22 1.8057
-1.24999 0 1.8 -2 -4.76456e-22 1.98532 -1.20969 -1.65436e-23 2 -0.499993
0 2 0.250006 0 2 1 0 2 1.75 0
2 2.5 0 2 3.25 0 2 4 0 2
4.75 -1.05879e-22 2 5.5 0 2 6.25 0 2 7
5.29396e-23 2 7.75 0 2 8.5 0 2 9.25 0
2 10 -1.32349e-23 2 -5 2.21817e-18 2 -4.25 1.05879e-22 2
-3.49999 0 2 -2.74999 0 2 -1.99999 -5.29396e-23 2 -1.24999
3.30872e-24 2 0.0956945 -5.42101e-20 0.203879 0.0632748 0 0.203876 0.0625511 0
0.250042 -0.403589 6.77626e-21 0.40138 -0.405779 7.7927e-19 0.38799 -0.406379 -6.77626e-21 0.375196
-0.499567 -1.35525e-20 0.375265 0.250006 -6.50521e-19 0.375144 0.156247 0 0.375155 0.156237
9.41901e-19 0.400212 0.203129 0 0.400201 0.249796 0 0.59991 0.249852 -1.0842e-19
0.587433 0.202953 0 0.587417 0.202888 6.50521e-19 0.599901 0.625121 -6.77626e-21 0.499953
0.717439 6.77626e-21 0.504955 0.625095 6.77626e-21 0.475379 0.343596 1.0842e-19 0.599918 0.343639
0 0.574939 0.296781 0 0.574964 0.249926 0 0.574977 0.62499 -4.2826e-18
0.549927 0.624917 4.55365e-18 0.599925 0.203133 0 0.412725 -0.449046 0 0.587135
-0.496581 5.42101e-20 0.587161 0.625036 -9.32414e-18 0.40006 0.625067 1.13164e-18 0.450032 0.249704
0 0.624881 0.155871 0 0.599866 0.155839 1.95156e-18 0.624853 0.249886 1.35525e-20
0.749873 0.062411 0 0.749846 0.0624478 -4.26227e-18 0.799869 -0.312472 0 0.749804
-0.499901 -3.38813e-21 0.749824 -0.691227 0 0.30453 -0.499912 3.02221e-18 0.300065 -0.875784
-3.11708e-18 0.361353 -0.592465 -2.71051e-20 0.40036 -0.499854 0 0.350135 -0.687111 1.35525e-20
0.350117 -0.68656 -2.71051e-20 0.40021 0.437526 -1.35525e-20 0.400108 0.437522 6.77626e-21 0.350086
0.250015 -2.51399e-18 0.35011 0.625027 3.38813e-21 0.350064 -0.592287 0 0.425286 -0.498048
0 0.425444 -0.873902 5.42101e-18 0.54992 -0.496663 0 0.574746 -0.591532 0
0.574798 -0.591729 0 0.599734 -0.149108 0 0.406489 -0.149477 -5.29396e-23 0.403592
-0.149678 0 0.406489 -0.451876 -2.1684e-18 0.499977 -0.451579 0 0.487563 -0.498366
0 0.487552 -0.498515 -1.0842e-19 0.499993 0.437553 0 0.450075 0.437532 -6.07153e-18
0.425113 0.254621 -1.25361e-19 0.496697 0.26485 -5.42101e-20 0.498023 0.264831 0 0.496529
0.254636 -2.30393e-19 0.49668 0.570241 0 0.499932 0.437665 -2.71051e-20 0.474991 0.437859
-2.71051e-20 0.49988 0.437372 -1.0842e-19 0.599915 0.249722 3.25261e-19 0.649874 0.43732 -5.42101e-20
0.649899 0.624872 0 0.649914 0.624883 -3.95734e-18 0.699913 0.43734 6.83047e-18 0.699894
0.249817 0 0.699869 -0.592227 0 0.624743 -0.498071 -2.71051e-20 0.624658 -0.499769
6.77626e-21 0.69979 -0.687025 0 0.699824 -0.150854 -1.03677e-18 0.599678 -0.151059 -6.77626e-21
0.605522 -0.127339 6.77626e-21 0.605681 -0.127867 0 0.599582 -0.406139 -4.40457e-20 0.699754
-0.406113 0 0.674749 -0.499634 0 0.674774 -0.18433 -4.23516e-22 0.674527 -0.163626
-4.23516e-22 0.678958 -0.165125 0 0.674537 -0.171868 4.23516e-22 0.674524 -0.14924 3.34737e-19
0.400169 -0.125737 0 0.400165 -0.12551 0 0.393854 -0.149076 -2.11758e-22 0.393877
-0.499925 -2.61564e-18 0.325088 -0.406241 0 0.325087 -0.4062 0 0.300069 -0.124901
0 0.300062 -0.218633 -3.27294e-18 0.299673 -0.218596 1.35525e-20 0.324664 -0.124851 0
0.325085 -0.126061 7.86047e-19 0.406473 -0.0785222 1.30782e-18 0.400166 -0.126118 3.38813e-21 0.41275
-0.0785648 0 0.412729 0.240678 1.0842e-18 0.500153 0.252614 -2.1684e-19 0.498317 0.252386
1.0842e-19 0.496231 0.241035 0 0.496114 0.228892 -1.35525e-20 0.496204 0.228835 6.77626e-21
0.498715 0.229819 2.71051e-20 0.500074 0.25248 0 0.499935 0.240657 -1.6263e-19 0.500957
0.264863 0 0.500154 0.264689 0 0.500951 0.437443 0 0.549896 0.437406
[...]
POINT_DATA 2021
FIELD attributes 2
p 1 2021 float
1.97706 1.41094 2.34794 4.31954 0.0605179 0.058426 -4.17653 -6.00354 -7.63818 -6.09559 -4.27187
0.492308 0.460056 0.109435 0.32451 0.173777 0.00178552 0.0267619 0.00389366 0.0138452 0.00847634
0.0152847 0.00449465 0.0101221 0.0003057 0.00484266 -0.00120505 0.00244533 -0.000997379 0.00199366 -0.000547605
0.00177937 0.000537454 0.00309927 0 0 0.612269 0.607847 0.607694 0.611982 0.633
0.632105 0.702508 0.699399 0.922976 0.919776 1.63131 1.75313 1.76724 2.21949 2.45798
-4.04472 1.34157 -4.09771 0.646289 -0.108423 -5.99341 0.56838 0.43911 0.18938 0.029759
0.0077418 0.0101275 0.00654635 0.00184604 -0.000250258 -0.000368763 -0.000931964 0.00221095 0 0.607259
0.61121 0.629695 0.690416 0.898923 1.94688 2.01891 3.10663 3.84877 7.26525 -3.374
-1.09498 4.53888 -5.63086 -5.62246 -2.19922 0.319632 0.804594 1.0156 0.908929 0.517174
0.51304 0.803969 0.834255 0.424783 0.167522 0.023552 0.00257746 0.00699241 0.00510319 0.00109684
-0.000634448 -0.000469859 -0.000688172 0.002549 0 0.606567 0.61002 0.626071 0.677801 0.858828
1.84205 2.12611 5.11347 5.56425 4.80278 32.4956 36.3817 51.9309 45.8851 4.72369
4.82422 3.32414 3.39026 2.63707 4.07777 0.797725 0.80515 0.784787 0.802456 1.39094
1.77794 1.83731 0.961428 0.470835 0.348674 0.128033 0.0133552 -0.000226991 0.0063947 0.00594596
0.00254463 0.00107285 0.00126547 0.00175126 0.00334762 0 0.60569 0.60854 0.621656 0.663003
3.23917 3.7359 4.66387 4.742 34.3068 32.6465 44.5674 50.706 0.798647 0.778594
0.936559 1.69648 2.61793 1.13892 0.0659744 -4.83349 -5.26492 -2.73178 -0.229986 0.189737
0.0729645 -0.00659329 -0.0124736 -0.00228737 6.6888e-05 -0.0015865 -0.00194525 -0.00101611 0.000117231 0.00118143
0 0.60472 0.60692 0.616849 0.647105 0.73769 2.73717 1.7262 5.18379 3.2905
0.561829 -0.665414 0.696183 0.313022 0.313516 0.144553 -1.69358 0.676293 0.283767 -0.969449
-0.394332 0.0968808 0.0645289 -0.0039135 -0.0123388 -0.00220967 0.000843773 -0.000531912 -0.000868257 2.89023e-06
0.00102467 0.00153153 0 0.603755 0.605313 0.612022 0.631065 0.674554 0.690981 0.825503
1.15583 0.326525 0.619896 0.611236 0.616289 0.654394 0.623647 0.56537 0.383714 0.0611115
-0.562078 -0.377905 0.0454343 0.0589744 -0.00538229 -0.0165248 -0.00550198 -0.00139227 -0.00232941 -0.00245393
-0.00144702 -0.000325613 0.000261184 0 0.602891 0.603859 0.607619 0.564723 0.604573 0.604611
0.588717 0.494362 0.426207 0.0783056 -0.43375 -0.34888 -0.00141602 0.0476204 -0.00899424 -0.0201221
-0.0075421 -0.00240132 -0.00298377 -0.00294374 -0.00183839 -0.000636752 4.94052e-05 0 0.602211 0.602688
0.60409 0.49386 0.603636 0.593109 0.568479 0.456759 0.426588 0.0873708 -0.363699 -0.332709
-0.027854 0.042377 -0.00942424 -0.0211576 -0.00824865 -0.00281093 -0.00332274 -0.00322827 -0.00207156 -0.000827042
-7.46812e-05 0 0.60177 0.601906 0.601758 0.597256 0.455643 0.562233 0.424405 0.090386
-0.341343 -0.327476 -0.0362008 0.0407656 -0.00952648 -0.0215487 -0.00858121 -0.00302867 -0.00347983 -0.00332726
-0.00212608 -0.000854253 -7.27808e-05 3.269e-05 0.601615 0.601624 0.600918 0.594748 0.561725 0.443373
-10.1877 -11.0398 -11.647 70.3632 59.9249 43.7342 29.5833 2.94839 1.80143 4.51208
5.09071 3.90618 4.22921 5.81733 5.16349 1.97267 1.68444 2.09348 2.72645 3.3699
2.95006 3.51966 2.16975 1.8293 6.04545 56.1926 39.3893 1.89086 2.21773 3.57757
4.51838 2.13446 -4.45867 -11.0606 -9.7463 -3.18143 8.45473 6.96455 11.8421 4.72335
17.4076 20.7386 9.0951 10.4752 2.53383 1.45504 1.0176 1.61183 19.6741 36.8408
5.59094 39.5886 20.2887 18.7834 -58.4598 -58.2573 -58.4637 68.3875 68.2976 47.4895
44.7278 3.40235 3.08625 -5.79263 -0.103045 -0.236057 -5.84483 2.54108 3.98061 3.90818
2.71206 1.80622 1.65901 1.54619 0.900351 0.704618 -1.32826 16.9738 28.0618 13.2737
7.25793 -55.9119 -55.7858 -57.8435 -57.7659 13.8614 19.0965 18.4535 -46.0844 -42.5157
-44.1883 -44.933 -58.0135 -56.913 -56.9952 -57.438 16.5384 15.7548 11.9014 -29.1543
-27.9854 -45.3864 -36.7695 -58.3001 -45.0532 -58.0745 -47.2317 11.0052 4.00893 10.5641
11.9354 9.06738 9.35057 9.65017 4.20019 11.1283 0.454452 0.254834 3.56552 3.29044
4.01041 4.22052 47.6863 68.2725 -57.9245 -55.7439 6.22788 11.1296 -50.7965 -52.2903
-57.574 4.29542 6.00338 6.40166 6.46944 -31.2005 -39.7599 -49.2665 -29.6994 64.3235
60.7054 41.5809 41.3322 -43.1211 -55.4592 -11.3132 -8.30302 -0.342057 -24.0293 -42.0665
42.9232 44.2502 64.2463 66.4149 -50.954 -49.1563 -50.0103 0.361182 -9.51648 -12.4735
-11.4809 -21.3595 -24.5236 -56.8849 43.9688 21.7999 22.0962 11.6621 11.9751 12.1556
13.1026 21.976 44.4406 10.7687 12.4279 11.8676 13.2036 -58.2541 -58.2205 -57.5433
-57.5312 -57.1028 -56.5488 -56.2578 45.7448 66.7486 -57.9192 -57.969 -58.3457 -57.829
-29.031 -34.2426 -32.1369 -13.236 -1.23609 -4.54408 -49.9207 -49.5848 -57.4242 -12.771
0.310243 0.338481 -12.9272 -57.6006 -56.0006 -50.6537 -12.1848 -10.0174 -3.56815 1.64171
-7.4352 -5.98637 -18.9624 -38.5074 -41.3943 -36.1632 -51.8143 -52.7918 -52.6673 -4.65593
-17.975 -18.7815 -5.28201 -55.5145 -51.4636 -55.5116 -4.01431 -9.75978 -16.9643 -11.4319
67.4644 46.8047 -53.7701 -53.8448 -56.1911 -56.1183 -55.6912 -53.3902 -56.456 -52.8817
-55.5229 -58.4759 -58.6727 -58.6999 -32.0136 -76.7984 -95.6938 -100.678 -103.238 -102.825
-48.6255 -49.9308 -53.9425 -47.8202 -50.6208 -98.9191 -99.8978 -71.6059 -34.8002 -57.8335
-58.6992 -58.5916 -55.8393 -56.5027 -56.8476 -56.8079 -57.1611 7.18451 6.09788 9.01515
-55.3683 -55.3807 -55.4556 -54.9862 -55.0097 -55.5445 -56.029 -54.9284 -54.9091 1.57544
1.27435 0.0847913 0.725605 3.70595 4.09533 0.874129 -55.532 -55.9082 -56.6453 5.67298
6.54247 2.62623 0.666381 2.98029 -31.9803 -37.8416 -37.4242 -31.9376 -53.8535 -54.3226
-57.1339 -56.8996 -54.7267 -55.4857 -39.0818 -43.3907 -42.9695 -36.9341 -45.6436 -49.6271
-53.0239 -53.1794 -51.991 123.585 131.46 146.795 146.882 -57.5372 -55.8839 -56.0818
-57.133 -57.2695 4.26548 2.01619 2.64878 4.19931 -10.1905 -4.32643 -6.44341 -9.46073
-12.4156 -39.6214 -36.8669 -25.8301 -27.9653 -32.717 -39.6959 -25.4301 -25.022 31.0693
41.2389 52.068 37.8769 23.036 19.1942 34.2128 26.1238 0.676005 0.833448 1.98779
33.9207 24.7627 16.8256 21.847 2.38273 3.45653 4.04458 4.11534 3.30565 6.27361
6.30303 4.14724 -9.34914 -8.22965 -1.36369 -10.2065 14.6598 9.12355 10.795 -54.2019
-56.0315 -56.1584 -54.3922 -82.0488 -80.7826 -83.9843 -47.7011 -12.6587 -18.2819 -27.5062
-55.5014 -52.2744 -55.0156 -56.1356 -73.7574 -73.3417 -58.0928 -59.3381 -48.775 -47.6906
-49.627 -50.1998 3.22024 3.28936 -1.34386 5.92681 5.51545 4.38744 5.10387 5.75648
6.0985 -53.3384 -53.2371 -68.327 -67.5443 78.8968 93.9744 85.5639 112.011 106.314
88.7432 90.0589 161.799 164.129 153.293 121.539 98.3169 104.263 97.2095 117.546
-12.4653 -26.2775 -30.4598 -5.52648 -25.5168 -51.541 -40.8733 -6.01761 93.6934 101.191
86.7573 78.2214 96.65 88.3478 107.573 148.456 158.2 167.394 165.122 106.57
102.849 159.625 -32.2453 -7.9275 -37.9969 -28.079 -46.8859 140.149 140.016 115.528
110.509 110.164 115.429 139.535 138.918 108.052 167.188 170.795 171.967 172.261
173.676 186.628 186.817 174.783 173.234 -32.4673 -39.5268 -32.4261 -55.6443 -50.187
-42.2976 -41.7765 -40.4767 -25.116 2.77676 -2.5658 -0.814301 173.355 175.301 187.17
172.329 186.487 187.131 175.191 172.156 179.592 181.756 170.092 168.859 179.885
167.85 171.073 182.408 -52.3577 -38.028 -36.6199 -55.2827 -55.2133 -55.4662 -36.2469
-45.8336 -36.3405 -36.9202 -45.4962 -45.4438 -3.80969 -9.71207 -25.3459 -25.3735 -32.4059
-42.9674 -32.393 -32.1905 -42.5039 -20.8817 -19.1418 -20.4882 115.35 140.081 138.069
138.979 114.61 109.239 170.015 169.887 170.455 167.712 136.345 108.332 113.509
137.094 -56.4546 -53.5576 -52.8073 -52.6442 -55.3186 -45.9808 89.9786 93.2247 78.4426
-15.7905 -6.9851 -6.48423 -20.5939 54.5887 56.532 70.2156 73.7242 -55.7099 -54.8843
-55.1561 -55.6568 -56.7955 -57.0395 -57.2507 -57.3674 -55.7427 -55.8226 -55.2804 -55.4111
-135.07 -109.071 -77.7321 -95.2433 -97.5985 -98.4809 -98.4744 -82.6314 -78.7673 -92.4649
-71.8009 -86.8127 -134.894 -138.386 -129.948 -96.3256 -97.0062 -54.5997 -53.9592 -54.5493
-55.7607 -56.0095 -53.6904 -53.4954 6.60618 6.89989 13.7371 16.3583 13.8026 -50.6938
-50.2557 -46.0063 -45.9389 -47.2292 -47.0985 -47.0757 -46.7879 12.8397 12.5244 16.9944
7.75172 7.53299 9.17124 9.70491 9.76866 8.28026 7.00074 7.72589 12.3169 15.8917
13.8252 0.369578 -1.37796 -3.61682 6.70157 5.8365 4.66951 6.08303 6.82009 -52.1515
-53.2178 -55.9525 -55.1527 -48.4976 -49.6922 13.6317 15.6245 16.982 -47.6613 -50.0387
-50.175 -47.5194 -46.7637 11.2 10.9303 10.9733 9.27739 6.39257 -8.17484 -6.87264
4.90668 5.89256 5.88887 -48.3797 -48.971 146.404 148.428 140.833 136.887 113.205
118.193 125.62 121.059 184.583 185.861 182.155 178.393 -55.7225 -55.6757 -52.872
-52.7738 169.608 183.347 185.045 172.967 174.422 186.556 171.003 182.135 169.599
179.272 -17.3255 -19.9088 -24.5922 -29.4063 -27.8501 -24.1444 -9.18047 -3.82034 -4.01936
-9.23191 -14.3041 -14.253 -1.07923 -9.04386 -9.90782 -15.0503 -18.0711 -8.38732 -9.09969
-24.8458 -20.2559 -9.59352 -0.772677 -3.02921 6.2396 -3.15867 6.22344 6.93136 2.84729
3.4607 4.22084 3.85911 7.78024 6.16201 3.78398 5.64757 -18.7915 -15.9509 -26.189
-21.4005 -56.2004 -57.904 -58.4725 -58.3456 2.90283 2.96646 5.09199 5.57653 4.29525
4.93034 -14.8021 -40.5268 -57.2568 -65.3667 -53.5103 -32.25 -58.6261 10.8614 10.2968
10.3212 -3.47073 -0.544505 11.8731 17.4705 9.38682 24.3288 21.0529 10.5325 1.04364
6.47774 8.0457 13.1082 11.4535 6.43372 -53.1742 -43.7522 -49.689 -13.0535 -43.8149
-24.9088 -60.4392 -83.3734 108.554 92.5789 106.062 108.233 112.62 111.752 172.847
171.969 173.222 172.539 171.236 185.941 185.942 185.175 -57.5751 -57.8011 174.466
-55.8839 -55.8876 -57.0192 -57.1615 -56.904 -55.3015 -151.902 -138.671 -138.522 -135.201
-159.625 -138.397 -133.988 -134.33 -120.315 -116.108 -81.4564 -73.0256 -73.2102 -70.6686
-120.147 -122.014 -56.62 -55.6349 -54.3453 -57.0347 9.42763 7.15804 10.7287 8.22695
11.0799 12.0909 12.4889 13.2302 14.0827 -54.6923 -53.9049 -56.1053 -54.9374 -53.1097
-52.8611 -53.0044 -54.8161 -6.9887 -1.20825 -2.0554 -5.50606 8.95284 9.25352 6.48202
5.56249 7.29188 9.35839 8.5587 6.41462 0.876723 7.72529 6.58938 6.49859 8.64854
10.4188 9.19598 12.0675 11.3396 -54.6736 -54.9376 -54.5117 -54.6175 -54.7987 -54.7367
-54.3101 -52.0186 -53.2992 -53.3084 -53.3931 -50.9163 -52.3438 -73.442 -72.6828 -57.4697
-59.7594 -77.0831 -68.0553 -77.4984 -124.159 -128.806 -136.425 -79.0899 -96.9849 -107.143
-79.8881 -98.3353 128.665 113.477 148.44 151.666 -54.4126 -53.6766 -54.778 -54.8709
-52.8938 143.842 167.847 146.102 -48.9294 -48.1571 -48.4758 -49.1934 -48.8513 -48.875
-48.8053 -47.7679 -8.85192 -10.2439 -12.7466 -11.7789 -15.5821 -17.9904 -20.2692 -17.9104
-18.9299 74.7601 85.4851 -59.8004 51.1498 76.4961 64.9449 75.3585 60.812 13.2955
10.3513 45.2982 36.2727 7.82098 8.69137 3.12945 4.8529 4.68641 7.26461 6.26142
6.64509 6.99453 7.73118 -52.3829 -51.8936 -51.7652 -52.3789 -1.91286 -1.38874 -1.96226
1.55192 5.38851 4.78519 6.94674 6.27354 -50.7781 -51.09 -50.8946 138.119 136.201
171.147 184.752 189.065 189.353 186.841 185.315 -55.5683 -55.3179 -55.6204 -55.6578
-53.0216 -46.5559 -47.2519 -47.6732 -46.986 -47.1957 -48.3216 -55.8003 -55.8295 -56.4441
-57.0071 -56.7146 -56.7099 -56.8049 -56.4598 -54.6836 -115.59 -111.069 -136.819 -113.084
-135.585 -123.241 -124.615 -135.032 -55.9202 -57.1467 -55.5379 -54.1405 13.532 12.2684
11.2708 12.2993 12.5903 13.1159 -37.4107 -37.1922 -32.6991 -31.8411 -42.444 -43.3355
-47.4883 -46.9024 -51.6172 -51.6859 -46.7526 -52.2358 -51.9203 -7.27433 -1.76178 -12.7414
-0.195702 1.34184 7.75377 7.2752 7.61891 3.73277 10.5469 7.08566 8.56068 9.86564
10.5764 10.5324 10.644 12.5795 12.201 1.61918 12.3016 14.8218 16.0363 3.3535
2.8289 2.55609 3.28056 -59.0667 -58.0424 -54.0203 -56.5452 -45.4919 -44.6804 -40.9599
-45.0076 -46.7162 -50.8547 -52.3922 -50.2582 -50.7084 -50.2377 -48.3435 -53.0328 -48.0184
3.67206 -48.7313 -50.2728 140.908 131.703 129.317 129.32 129.7 114.183 106.763
188.642 188.116 187.115 -50.3268 -50.5997 -2.10134 -1.58414 -0.522986 -30.8639 -31.4728
186.058 186.889 180.361 183.33 181.88 181.503 -34.0062 -29.9939 -3.84961 -8.77255
-6.78729 -4.00297 -26.0068 -14.8732 -11.331 -14.4239 -20.9706 -4.5725 80.7632 56.4224
60.7874 21.0125 21.3896 67.9313 110.627 10.2502 7.15715 -2.5978 -2.89013 6.93796
7.77141 8.05909 6.19353 6.65061 24.5129 16.2943 -0.389055 19.7492 -2.65747 2.8832
8.18326 8.06002 67.9468 110.139 -54.0098 -55.0866 18.1108 91.4028 108.873 100.483
92.6323 108.192 109.248 126.617 134.384 143.238 -55.7301 81.399 73.3503 50.0204
12.7158 18.6226 16.784 -75.4217 -56.707 -56.701 -56.7047 -55.0016 -54.9216 -59.6322
-55.194 -59.6677 -60.2329 24.0024 -7.02532 5.80098 10.5927 10.8966 -2.15645 -2.25653
-3.43125 -54.8525 -53.3074 -1.5963 2.18689 2.48193 -57.2755 -56.7661 -55.8623 7.84469
7.53965 3.7025 -56.4466 41.5449 49.2799 -67.806 -60.1389 16.9584 14.5077 8.63547
6.532 4.59406 8.10602 6.53965 -53.7323 -53.7198 -52.6635 -52.562 -55.3135 -51.9536
-51.5093 -54.1575 -54.5097 -54.488 -53.9202 -55.1373 -54.6672 -54.5133 -54.2112 3.98282
-51.502 -57.4841 -56.3794 100.409 129.064 144.64 155.103 168.043 162.861 160.673
148.666 188.228 -52.4741 -53.6211 -51.4318 -7.3617 -10.3945 -3.42108 -49.4849 -49.5923
-49.3358 -49.4938 -53.0014 -47.8884 -48.816 -47.694 -47.5131 -48.1279 27.5057 18.943
-112.299 -119.868 -119.726 -120.392 -120.752 -73.4554 -96.4562 -73.4576 13.2116 17.0225
-12.2636 11.9197 11.2934 -6.32803 -8.05069 3.70648 1.97036 0.454332 -0.0504154 -1.4081
-3.02693 -1.69572 3.69026 4.01561 -0.207794 2.24054 3.98409 1.83435 0.705193 13.0303
17.6198 -50.373 4.97777 12.7302 8.29731 16.6157 8.07817 11.024 14.2195 16.0374
4.30315 4.47523 6.46562 5.80812 -2.83331 -4.91196 -7.35675 -7.24856 4.70892 0.863263
3.81871 9.41362 15.545 16.7905 8.0659 5.36662 2.41389 2.01071 6.86774 10.5364
11.1995 11.8876 11.0351 5.40836 -4.64751 5.2735 -3.78381 2.49569 -4.65928 1.76942
11.0847 8.32899 12.5047 7.03175 9.50935 11.4832 10.89 10.5812 8.14127 8.6347
9.1649 9.42233 8.09495 7.43955 7.51559 6.07885 -6.31628 -10.0752 -8.18849 6.55399
5.93276 8.21473 6.2748 -10.3926 -12.4148 0.587622 7.04263 5.71859 -2.50545 5.37852
-138.895 -139.658 -139.899 10.334 -55.3548 -54.5644 -54.6995 4.92628 9.67278 5.01886
8.14591 11.027 -55.5435 -55.3638 -55.1259 -55.0716 -60.7116 -60.2615 -60.7668 -68.6396
-115.816 -119.865 -113.485 -120.67 -48.7222 -49.2132 -47.7618 -47.4968 -47.6283 -47.5011
-15.5864 -15.5814 -18.0889 -52.1072 -51.9357 -51.7551 4.69146 0.745711 4.62453 4.53265
-51.5956 -51.9409 -52.0079 141.647 151.018 -55.2244 -50.3177 13.0884 13.6802 11.3718
6.92692 11.2212 18.9761 4.18622 3.261 4.54636 3.6546 -52.9907 -57.0079 -56.7853
-55.1054 7.62003 15.2963 11.0705 3.89444 4.08764 10.1162 8.83413 9.51276 8.60003
10.4187 12.5089 10.2678 5.4444 8.72647 8.29664 -53.543 -49.8291 -48.7105 91.3835
80.5159 84.3757 67.0832 73.0279 -5.18011 -3.21192 0.105321 -1.7652 7.52417 8.07873
7.58125 8.17045 7.94342 7.40861 6.92295 116.877 106.795 94.7481 -73.3828 -56.9505
-55.7312 -54.5971 -54.4405 -54.0286 -54.0156 163.443 139.709 161.852 161.964 7.08852
3.8979 10.4359 11.0355 7.11797 8.57179 7.32224 6.86463 6.03343 2.59198 -2.73018
4.77224 5.46766 6.08149 4.23443 6.59824 14.6489 9.11676 -14.4198 15.7625 14.4819
7.39368 10.739 16.2248 9.14156 -14.053 -15.0622 -12.9654 -3.64598 -5.83552 -14.782
6.97353 4.85008 -16.2727 -18.1432 6.69046 4.41868 -1.88608 -5.1301 -54.2459 -46.7547
12.8392 1.71282 -0.016032 -0.406167 6.04382 5.59702 6.58606 6.11336 6.06426 5.62255
-0.205722 6.04745 6.66845 -1.04238 5.53046 4.41922 7.20736 6.66271 6.02172 106.375
86.9286 122.117 123.926 5.02001 4.71689 3.08356 -54.4216 4.94026 6.01729 5.76368
-10.1754 -13.2095 -0.498976 6.06489 6.56597 5.11085 7.97315 4.92433 6.67497 3.51095
36.6864 -52.8814 -54.872 -54.4262 -54.3474 -54.4498 -3.60316 -5.07153 -14.3031 -14.1676
-14.1923 -4.51832 9.10765 2.41393 5.51863 6.79676 1.95827 1.73294 -0.733605 -1.80737
-12.0946 -6.036 -4.85447 -12.4962 -4.96978 -13.5256 5.52009 -13.0607 -14.1222 -3.42237
0.970402 6.43364 6.40424 5.86205 8.87097 -0.257212 6.65641 -3.44632 -1.37192 4.22377
-1.48216 7.17557 4.63209 -10.4654 8.97209 -0.899454 6.22845 0.903809 1.27263 4.87025
5.24508 4.25909 5.04811 2.3949 7.59391 8.80315 5.2368 5.89195 0.669549 3.17847
11.1874 5.20895 0.201229 -0.787075 3.23837 173.11 176.94 176.113 181.028 169.119
168.092 172.676 179.917 180.911 69.3139 73.5322 54.5804 -55.9653 -41.6622 -38.7224
-37.4116 -31.8471 -44.1536 -51.1567 -50.8496 -55.1439 -46.8293 100.625 154.491 162.12
155.253 147.036 -56.3256 -55.9491 -56.2153 -56.0382 -55.4562 -56.0071 -54.6483 -54.9518
-54.8047 3.46072 -0.7263 171.212 -19.0438 185.998 190.251 189.399 -50.7774 -46.7874
182.743 185.877 186.053 -16.7767 -50.4516 85.2753 -54.7795 -54.9025 -55.1517 -55.1129
-50.0527 189.371 -2.79006 189.501 185.511 189.091 7.47158 -64.0351 110.483 109.791
-55.783 4.20463 -51.2484 -52.7777 -51.36 -140.079 138.812 -54.6307 159.124 -51.4807
-120.834 -120.751 72.5933 6.88633 2.09762 168.086 164.696 -15.3781 139.786 191.098
189.992 185.41 189.443 190.785 189.777 172.767 191.152 186.766 189.945 191.187
0.612285 0.607853 0.632989 0.70164 0.913993 1.61204 2.19092 -3.97375 1.3289 0.0254572
-4.07268 -5.83087 0.404874 0.0878518 -0.00324614 0.00381682 0.00941259 0.00562589 0.00145325 -0.00010842
2.34879e-07 0.000333004 0.00123264 0.000669542 -53.2979 -51.5401 -134.25 -134.816 -47.9877 -48.3237
-48.7808 -47.8411 -48.2162 -48.714 -49.188 -47.4786 -94.9752 -74.2329 -48.6045 -47.4939
-73.6763 -48.5353 -50.4348 -50.7262 -49.9977 -98.942 -110.868 -129.692 -119.863 -119.681

U 3 2021 float
20.0068 -0.0440473 -0.214669 20.0441 -0.0292012 -0.0733485 19.93 -0.00558406 -0.0959128 19.9371 -0.0539744
-0.604337 20.018 -0.0563233 0.0398043 20.0183 -0.0562195 0.0398387 20.1674 -0.0752053 0.0570412
20.2316 -0.083381 0.0649343 20.2767 -0.0881513 0.147741 20.2884 -0.112067 0.260654 20.2085
-0.11315 0.206176 19.9556 -0.0449764 0.0197764 19.9971 -0.0516924 0.018169 20.0043 -0.0500103
0.00686787 19.8558 -0.0239078 0.0179215 19.8546 -0.0206801 0.0144315 20.0065 -0.0497878 0.00175084
19.857 -0.0192648 0.00996923 20.0049 -0.049113 0.000355343 19.8561 -0.017723 0.00904078 20.0032
-0.0483928 -0.000180174 19.8547 -0.0162379 0.00868478 20.0017 -0.0477225 -0.000457046 19.8536 -0.0149519
0.0083901 20.0002 -0.0471275 -0.000621484 19.8525 -0.0138327 0.00812881 19.9987 -0.046553 -0.000719323
19.8513 -0.0128077 0.00792186 19.997 -0.0459827 -0.000782737 19.8502 -0.0118725 0.00772433 19.9954
-0.045419 -0.000783966 19.8492 -0.0110132 0.00764858 19.9935 -0.0448212 -0.000837521 19.8481 -0.0100949
0.0074018 19.8476 -0.00961294 0.0071222 19.9932 -0.0446119 -0.000851295 19.9996 -0.000326624 3.13189e-05
20 0 0 20 0 0 19.9996 -0.000327068 7.89647e-05 19.9983
-0.00075088 9.36513e-05 19.9984 -0.000761089 0.00027835 19.9943 -0.00148175 0.000365964 19.9942 -0.00145052
0.000994321 19.9789 -0.00265865 0.000332021 19.9797 -0.00297765 0.0035498 19.947 -0.00502583 -0.00903292
19.9368 -0.00582583 -0.00798113 19.9395 0.00270391 -0.0142842 19.9287 -0.00479105 -0.0293509 19.9072
0.00583904 -0.0606027 20.2319 -0.070104 0.0018152 20.0487 -0.027384 -0.0560398 20.2341 -0.0691944
0.00514454 19.9303 -0.0858643 0.0299652 20.0258 -0.113905 0.0811523 20.2313 -0.0833507 0.0644212
19.8577 -0.0291289 0.0235673 19.3094 0.116394 0.0109978 19.341 0.114114 0.0121019 19.3688
0.108584 0.0121794 19.3897 0.10439 0.0128242 19.4078 0.100713 0.0132803 19.4246 0.097251
0.0134048 19.4404 0.0939923 0.0133656 19.4552 0.0909411 0.0132596 19.4694 0.0880414 0.0130928
19.4824 0.085298 0.0129586 19.4971 0.0826379 0.0126639 19.5059 0.0812792 0.0123994 20
0 0 19.9996 -0.000328051 0.000137545 19.9985 -0.000760869 0.000489078 19.9946 -0.00145964
0.0017097 19.9802 -0.00310699 0.00598508 19.9203 -0.00841428 0.0106063 19.9201 -0.00756443 0.000915244
19.8511 -0.0156651 -0.0953499 19.7946 -0.0195886 -0.0681382 19.9574 -0.048658 -1.02069 20.4364
-0.0638569 -0.928601 20.2164 -0.0503839 -0.504554 19.932 -0.0539669 -0.633745 20.3061 -0.159132
0.447508 20.3065 -0.160005 0.450921 20.0993 -0.241974 0.575436 19.9904 -0.228287 0.296172