# vtk DataFile Version 2.0
sampleSurface
ASCII
DATASET POLYDATA
POINTS 2021 float
-0.500032 0 0.11501 -0.499951 3.38813e-21 0.0392727 -0.789037 8.47033e-21 0.120673 -0.500013 -1.35525e-20
0.193965 1.00003 0 0.0485099 1.00003 0 0.0478584 0.475202 0 0.0353615
0.250044 1.41878e-20 0.0305359 0.2506 -5.42101e-20 0.117067 0.251301 0 0.203885 0.364989
0 0.203772 1.75002 0 0.113255 1.75002 0 0.0564279 2.50001 6.89146e-18
0.059229 2.21354 0 0.250758 2.50001 0 0.252875 3.25001 -3.47927e-17 0.0598775
3.25001 -1.69407e-21 0.253888 4.00001 5.60566e-18 0.0599857 4 0 0.253986 4.75
-1.79088e-17 0.0599988 4.75 8.47033e-22 0.253998 5.5 -2.79246e-17 0.0599999 5.5 -4.23516e-22
0.253999 6.25 1.01187e-17 0.06 6.25 0 0.254 7 2.93732e-17 0.06
7 0 0.254 7.75 -2.65294e-17 0.06 7.75 0 0.254 8.5
1.8923e-17 0.06 8.5 0 0.254 9.25 -2.88552e-17 0.06 9.25 -5.29396e-23
0.254 10 -2.64698e-23 0.254 10 0 0.06 -4.24997 0 0.0599042
-5 0 0.0599861 -5 0 0.253986 -4.24997 0 0.253912 -3.49995
0 0.0593815 -3.49994 0 0.253441 -2.74993 0 0.0570188 -2.74991 0
0.251316 -1.99991 0 0.0492276 -1.99987 0 0.242776 -1.24992 -1.69407e-21 0.03
-1.24985 1.23328e-17 0.222327 -1.24989 3.38813e-21 0.125756 -0.874924 2.08116e-17 0.03 -0.874929
0 0.122356 -0.124951 -8.47033e-22 0.03 -0.499941 0 0.03 -0.124922 -8.47033e-22
0.0385291 1.00021 0 0.231242 0.625368 0 0.203537 0.25004 -2.11758e-22 0.03
1.75003 0 0.247334 1.92873 1.69407e-21 0.441438 2.50001 0 0.447397 3.25
-1.69407e-21 0.447898 4 0 0.447986 4.75 0 0.447997 5.5 -4.23516e-22
0.447999 6.25 4.23516e-22 0.447999 7 0 0.448 7.75 -1.05879e-22 0.448
8.5 0 0.448 9.25 0 0.448 10 -2.64698e-23 0.448 -5
-8.47033e-22 0.447985 -4.24997 0 0.447919 -3.49993 0 0.4475 -2.74988 0
0.445609 -1.9998 6.77626e-21 0.437758 -1.24969 1.61411e-17 0.417681 -1.24976 -6.77626e-21 0.31973
-0.875161 7.70461e-18 0.216228 -0.875403 0 0.312476 -0.499924 -8.74138e-19 0.250039 -0.312433
0 0.250037 -0.312436 0 0.200025 -0.499924 0 0.200026 0.250062 3.38813e-21
0.24921 0.250039 -1.69407e-21 0.250046 0.250032 0 0.300069 0.437526 3.05948e-18 0.300066
0.625026 0 0.30005 1.00072 -8.23994e-18 0.326497 1.00196 0 0.423 1.75013
0 0.439575 1.75013 1.77877e-20 0.448245 1.00135 0 0.537141 1.00002 0
0.61834 1.74999 2.71051e-20 0.633055 2.49999 -3.38813e-21 0.641448 3.25 0 0.641907
4 -1.69407e-21 0.641985 4.75 -8.47033e-22 0.641996 5.5 -4.23516e-22 0.641998 6.25
0 0.641999 7 0 0.641999 7.75 0 0.642 8.5 5.29396e-23
0.642 9.25 -5.29396e-23 0.642 10 0 0.642 -5 0 0.641985
-4.24997 -1.69407e-21 0.641926 -3.49993 0 0.641557 -2.74988 0 0.639897 -1.99989
6.77626e-21 0.63382 -1.25099 2.55465e-18 0.614606 -1.25 -2.71051e-20 0.515981 -0.878244 0
0.50789 -0.875961 2.71051e-20 0.459694 -0.875609 0 0.410432 -0.498432 0 0.400603
-0.498071 -1.70762e-18 0.413126 -0.450805 0 0.413349 -0.45095 0 0.400955 0.250009
1.89735e-19 0.412703 0.25 2.71051e-20 0.425212 0.296872 1.00289e-18 0.425187 0.343754 -2.71051e-20
0.425153 0.343763 0 0.400146 0.250006 0 0.400175 1.00162 1.41488e-17 0.520353
-2 4.23516e-22 0.820145 -2.09502 -2.11758e-22 0.830091 -2 0 0.829497 -1.25123
0 0.813251 -1.25126 0 0.713737 -1.25101 6.77626e-21 0.62198 1.00059 0
0.714169 1.00094 0 0.809205 1.75018 0 0.82775 2.5 0 0.835521
3.25 0 0.835917 4 -1.69407e-21 0.835986 4.75 -8.47033e-22 0.835996 5.5
0 0.835998 6.25 0 0.835999 7 0 0.835999 7.75 0
0.836 8.5 0 0.836 9.25 0 0.836 10 0 0.836
-5 -8.47033e-22 0.835986 -4.24997 0 0.835935 -3.49995 0 0.835616 -2.74991
0 0.83419 -0.970118 0 0.703382 -0.87455 0 0.699864 -0.874264 -2.71051e-20
0.649852 -0.874033 -2.71051e-20 0.599873 -0.49698 0 0.599585 -0.497345 -9.21572e-19 0.612046
-0.450014 0 0.611892 -0.44938 2.71051e-20 0.599454 -2.00002 0 0.84097 -1.84639
-3.38813e-21 1.02215 -1.25185 0 1.01276 -0.896512 -3.38813e-21 0.900668 -0.908183 6.77626e-21
0.801076 -0.904022 -1.86347e-20 1.00093 0.624925 0 0.799916 0.249931 0 0.799891
0.249978 0 0.899916 0.249997 0 0.999939 0.999987 0 0.999957 1.75061
-2.1684e-19 1.02409 2.50003 0 1.0296 3.25 -1.69407e-21 1.02993 4 0
1.02999 4.75 0 1.03 5.5 0 1.03 6.25 2.11758e-22 1.03
7 0 1.03 7.75 0 1.03 8.5 5.29396e-23 1.03 9.25
0 1.03 10 0 1.03 -5 0 1.02999 -4.24998 0
1.02994 -3.49996 -8.47033e-22 1.02968 -2.74996 0 1.02849 -2.00026 0 1.02458
-0.87482 0 0.799893 -0.87491 0 0.899919 -0.49993 0 0.799862 -0.499958
7.6233e-19 0.849889 -0.312476 0 0.849885 -0.312472 0 0.799853 -1.25001 8.04681e-21
1.19601 -0.499979 5.29396e-23 1.10737 -0.731886 2.11758e-22 1.19997 -0.499981 0 1.19997
-0.124987 0 0.999933 -0.477759 -5.29396e-23 0.999933 -0.487556 -1.45584e-22 1.09995 0.250008
0 1.19997 1 0 1.19997 1.7507 0 1.22203 2.50003 -1.35525e-20
1.22368 3.25 0 1.22394 4 0 1.22399 4.75 4.23516e-22 1.224
5.5 0 1.224 6.25 2.11758e-22 1.224 7 0 1.224 7.75
1.05879e-22 1.224 8.5 0 1.224 9.25 0 1.224 10 2.64698e-23
1.224 -5 4.23516e-22 1.22399 -4.24999 -4.23516e-22 1.22395 -3.49998 0 1.22374
-2.75001 0 1.22279 -2.00077 0 1.21965 -1.24997 4.23516e-22 1.19997 -0.499969
-5.29396e-23 0.999933 -0.874942 0 0.999936 -0.499979 -1.32349e-23 1.09995 -2.75001 0
1.36967 -3.18711 4.23516e-22 1.41751 -2.75001 4.23516e-22 1.4171 -2.00072 3.38813e-21 1.29692
-2.00065 0 1.41474 -1.25823 6.35275e-21 1.40014 -0.980416 0 1.39998 -0.499986
0 1.39998 0.250009 0 1.39998 1 0 1.39998 1.75054 0
1.41682 2.50002 -1.35525e-20 1.41776 3.25 0 1.41796 4 4.23516e-22 1.41799
4.75 0 1.418 5.5 0 1.418 6.25 0 1.418 7
0 1.418 7.75 0 1.418 8.5 0 1.418 9.25 0
1.418 10 0 1.418 -5 0 1.41799 -4.24999 0 1.41797
-3.49999 -4.23516e-22 1.41781 -1.24998 0 1.39998 -2.80392 1.32349e-23 1.61143 -2.75
-1.32349e-23 1.6114 -2.0003 0 1.60983 -1.25396 2.64698e-23 1.60004 -1.12789 2.64698e-23
1.59999 -0.49999 1.05879e-22 1.59999 0.250008 0 1.59999 1.00001 4.23516e-22 1.59999
1.75038 0 1.61122 2.50002 0 1.61184 3.25 -4.23516e-22 1.61197 4
-4.23516e-22 1.61199 4.75 0 1.612 5.5 0 1.612 6.25 0
1.612 7 0 1.612 7.75 5.29396e-23 1.612 8.5 2.64698e-23 1.612
9.25 -1.32349e-23 1.612 10 -1.32349e-23 1.612 -5 0 1.61199 -4.24999
0 1.61198 -3.49999 0 1.61187 -1.24999 0 1.59999 -2.75 -1.32349e-23
1.63714 -2.64195 -2.11758e-22 1.80559 -2.00012 -8.47033e-22 1.80492 -1.25741 0 1.80004
-1.19082 -7.94093e-23 1.8 -0.499992 1.05879e-22 1.79999 0.250006 2.11758e-22 1.79999 1
0 1.8 1.75023 0 1.80561 2.50001 3.38813e-21 1.80592 3.25 0
1.80599 4 0 1.806 4.75 2.11758e-22 1.806 5.5 0 1.806
6.25 0 1.806 7 0 1.806 7.75 0 1.806 8.5
2.64698e-23 1.806 9.25 0 1.806 10 0 1.806 -5 0
1.806 -4.25 -2.11758e-22 1.80599 -3.49999 0 1.80594 -2.75 -1.05879e-22 1.8057
-1.24999 0 1.8 -2 -4.76456e-22 1.98532 -1.20969 -1.65436e-23 2 -0.499993
0 2 0.250006 0 2 1 0 2 1.75 0
2 2.5 0 2 3.25 0 2 4 0 2
4.75 -1.05879e-22 2 5.5 0 2 6.25 0 2 7
5.29396e-23 2 7.75 0 2 8.5 0 2 9.25 0
2 10 -1.32349e-23 2 -5 2.21817e-18 2 -4.25 1.05879e-22 2
-3.49999 0 2 -2.74999 0 2 -1.99999 -5.29396e-23 2 -1.24999
3.30872e-24 2 0.0956945 -5.42101e-20 0.203879 0.0632748 0 0.203876 0.0625511 0
0.250042 -0.403589 6.77626e-21 0.40138 -0.405779 7.7927e-19 0.38799 -0.406379 -6.77626e-21 0.375196
-0.499567 -1.35525e-20 0.375265 0.250006 -6.50521e-19 0.375144 0.156247 0 0.375155 0.156237
9.41901e-19 0.400212 0.203129 0 0.400201 0.249796 0 0.59991 0.249852 -1.0842e-19
0.587433 0.202953 0 0.587417 0.202888 6.50521e-19 0.599901 0.625121 -6.77626e-21 0.499953
0.717439 6.77626e-21 0.504955 0.625095 6.77626e-21 0.475379 0.343596 1.0842e-19 0.599918 0.343639
0 0.574939 0.296781 0 0.574964 0.249926 0 0.574977 0.62499 -4.2826e-18
0.549927 0.624917 4.55365e-18 0.599925 0.203133 0 0.412725 -0.449046 0 0.587135
-0.496581 5.42101e-20 0.587161 0.625036 -9.32414e-18 0.40006 0.625067 1.13164e-18 0.450032 0.249704
0 0.624881 0.155871 0 0.599866 0.155839 1.95156e-18 0.624853 0.249886 1.35525e-20
0.749873 0.062411 0 0.749846 0.0624478 -4.26227e-18 0.799869 -0.312472 0 0.749804
-0.499901 -3.38813e-21 0.749824 -0.691227 0 0.30453 -0.499912 3.02221e-18 0.300065 -0.875784
-3.11708e-18 0.361353 -0.592465 -2.71051e-20 0.40036 -0.499854 0 0.350135 -0.687111 1.35525e-20
0.350117 -0.68656 -2.71051e-20 0.40021 0.437526 -1.35525e-20 0.400108 0.437522 6.77626e-21 0.350086
0.250015 -2.51399e-18 0.35011 0.625027 3.38813e-21 0.350064 -0.592287 0 0.425286 -0.498048
0 0.425444 -0.873902 5.42101e-18 0.54992 -0.496663 0 0.574746 -0.591532 0
0.574798 -0.591729 0 0.599734 -0.149108 0 0.406489 -0.149477 -5.29396e-23 0.403592
-0.149678 0 0.406489 -0.451876 -2.1684e-18 0.499977 -0.451579 0 0.487563 -0.498366
0 0.487552 -0.498515 -1.0842e-19 0.499993 0.437553 0 0.450075 0.437532 -6.07153e-18
0.425113 0.254621 -1.25361e-19 0.496697 0.26485 -5.42101e-20 0.498023 0.264831 0 0.496529
0.254636 -2.30393e-19 0.49668 0.570241 0 0.499932 0.437665 -2.71051e-20 0.474991 0.437859
-2.71051e-20 0.49988 0.437372 -1.0842e-19 0.599915 0.249722 3.25261e-19 0.649874 0.43732 -5.42101e-20
0.649899 0.624872 0 0.649914 0.624883 -3.95734e-18 0.699913 0.43734 6.83047e-18 0.699894
0.249817 0 0.699869 -0.592227 0 0.624743 -0.498071 -2.71051e-20 0.624658 -0.499769
6.77626e-21 0.69979 -0.687025 0 0.699824 -0.150854 -1.03677e-18 0.599678 -0.151059 -6.77626e-21
0.605522 -0.127339 6.77626e-21 0.605681 -0.127867 0 0.599582 -0.406139 -4.40457e-20 0.699754
-0.406113 0 0.674749 -0.499634 0 0.674774 -0.18433 -4.23516e-22 0.674527 -0.163626
-4.23516e-22 0.678958 -0.165125 0 0.674537 -0.171868 4.23516e-22 0.674524 -0.14924 3.34737e-19
0.400169 -0.125737 0 0.400165 -0.12551 0 0.393854 -0.149076 -2.11758e-22 0.393877
-0.499925 -2.61564e-18 0.325088 -0.406241 0 0.325087 -0.4062 0 0.300069 -0.124901
0 0.300062 -0.218633 -3.27294e-18 0.299673 -0.218596 1.35525e-20 0.324664 -0.124851 0
0.325085 -0.126061 7.86047e-19 0.406473 -0.0785222 1.30782e-18 0.400166 -0.126118 3.38813e-21 0.41275
-0.0785648 0 0.412729 0.240678 1.0842e-18 0.500153 0.252614 -2.1684e-19 0.498317 0.252386
1.0842e-19 0.496231 0.241035 0 0.496114 0.228892 -1.35525e-20 0.496204 0.228835 6.77626e-21
0.498715 0.229819 2.71051e-20 0.500074 0.25248 0 0.499935 0.240657 -1.6263e-19 0.500957
0.264863 0 0.500154 0.264689 0 0.500951 0.437443 0 0.549896 0.437406
[...]
POINT_DATA 2021
FIELD attributes 2
p 1 2021 float
2.06821 1.47835 2.46169 4.47793 0.0502537 0.0480229 -4.50357 -6.46719 -8.22393 -6.74224 -4.76153
0.59211 0.559537 0.0809563 0.351618 0.155493 -0.0844982 -0.0501746 -0.0167191 -0.00565282 0.0716862
0.0726849 0.0935361 0.0901693 0.0612632 0.0565106 0.014956 0.0107569 -0.0176335 -0.0200043 -0.0279422
-0.0280269 -0.0204547 -0.0179041 0 0 0.661823 0.657112 0.656973 0.661551 0.683965
0.683074 0.757702 0.754511 0.988801 0.985759 1.72391 1.84793 1.86471 2.33134 2.57844
-4.33431 1.40607 -4.3892 0.675142 -0.239735 -6.4563 0.668933 0.517477 0.184549 -0.0307355
-0.00632753 0.0624447 0.07731 0.0440853 -4.06636e-05 -0.0286518 -0.0347729 -0.0219736 0 0.656563
0.660808 0.680664 0.74528 0.965108 2.05848 2.12483 3.25062 4.02564 7.47761 -3.3047
-1.07777 4.70161 -6.35181 -6.34478 -2.57977 0.21216 0.760639 1.07151 1.00431 0.621551
0.616871 0.8419 0.856916 0.516935 0.165351 -0.0311751 -0.0155636 0.0481436 0.066024 0.0387741
-0.000338466 -0.0262003 -0.0316722 -0.0199183 0 0.655894 0.659634 0.676989 0.732295 0.924883
1.96492 2.25334 5.35173 5.81093 5.01701 33.0512 36.9771 52.5911 46.5273 4.983
5.12654 3.46518 3.19795 2.51148 4.26432 0.838788 0.869913 0.848134 0.867153 1.50889
1.91055 1.9609 0.979315 0.480581 0.415653 0.122619 -0.0449829 -0.0323441 0.03022 0.056412
0.0401888 0.00906458 -0.0136273 -0.0197133 -0.0120028 0 0.655037 0.65816 0.672484 0.717051
3.46132 3.9885 4.94346 4.99489 35.239 33.615 45.7821 51.8875 0.863171 0.846251
1.02707 1.85848 2.82116 1.25424 -0.0286763 -5.43839 -5.65252 -2.89484 -0.264296 0.238314
0.0779343 -0.0546119 -0.0473878 0.0125279 0.0455636 0.0387931 0.0140493 -0.00687776 -0.014683 -0.0105856
0 0.654084 0.65654 0.667567 0.700609 0.799429 2.94869 1.89088 5.69844 3.68311
1.05252 0.0102336 0.761329 0.415437 0.379771 0.21155 -1.69717 0.824539 0.386449 -1.00729
-0.433629 0.125395 0.0824705 -0.0321356 -0.0400882 0.00958794 0.0417372 0.0381425 0.0160556 -0.00424765
-0.0130518 -0.010575 0 0.653134 0.654932 0.662619 0.683927 0.732712 0.755578 0.983309
1.27322 0.431779 0.672273 0.662439 0.668509 0.71137 0.67882 0.621143 0.434193 0.102145
-0.578747 -0.414223 0.0610681 0.082507 -0.0202667 -0.0399238 0.000684536 0.0309941 0.0298644 0.0112408
-0.00624576 -0.0133629 -0.00999512 0 0.652287 0.653481 0.658094 0.620503 0.656168 0.6563
0.641847 0.545177 0.474656 0.114654 -0.443342 -0.379156 0.0069029 0.0672785 -0.020323 -0.0422972
-0.00578881 0.0240375 0.0253518 0.0100892 -0.00459625 -0.0101263 -0.0065135 0 0.651625 0.652318
0.654464 0.544662 0.655278 0.644537 0.620458 0.50492 0.473575 0.121107 -0.370218 -0.359459
-0.0236022 0.0583761 -0.0182288 -0.0396587 -0.00560275 0.0226078 0.0240561 0.00985875 -0.00387562 -0.00912398
-0.00601143 0 0.651203 0.651551 0.652067 0.64859 0.503765 0.613863 0.470904 0.123259
-0.347182 -0.353233 -0.0330037 0.0557724 -0.0174101 -0.0386138 -0.00557773 0.0215446 0.0225627 0.00845703
-0.00506132 -0.0102366 -0.00718015 -0.00136344 0.651057 0.651278 0.651205 0.645953 0.613326 0.490646
-11.0558 -11.954 -12.7245 70.9021 60.4711 44.2636 30.1318 3.14456 2.04539 4.77227
5.40672 4.02039 4.42146 5.97284 5.28173 1.56073 1.38357 1.70872 2.68944 3.27234
3.3582 4.04789 1.71263 1.60828 6.40405 57.323 40.3542 1.73775 1.86132 3.39889
4.35484 1.65701 -5.22647 -12.67 -10.8005 -2.03815 9.22984 7.21549 12.1079 4.93453
17.8298 21.1924 9.38604 10.8092 2.22372 1.35878 1.00175 1.54485 20.1356 37.4578
5.85888 40.4996 20.8925 19.3847 -61.4255 -61.2038 -61.4339 69.2353 69.1131 48.2673
45.5068 2.94318 2.67472 -2.99434 0.32885 0.105065 -3.03008 2.0845 3.41499 3.34573
2.40259 1.5128 1.60732 1.47092 0.865601 0.658984 -1.81887 17.5608 28.985 14.0845
7.64063 -58.7715 -58.4181 -62.8716 -63.2063 15.2103 20.6112 19.3917 -45.621 -42.9985
-44.7786 -45.1917 -60.932 -59.7646 -59.8402 -60.3887 16.8839 16.1588 12.2449 -31.0428
-28.9573 -46.8474 -39.3232 -61.0872 -47.1954 -61.0324 -49.1542 8.91561 3.69725 7.98952
9.30054 7.81483 7.99674 8.19041 4.00286 9.02362 0.910132 0.855918 3.02484 2.8279
3.45377 3.67857 48.517 69.1576 -62.7198 -59.2341 5.87884 9.05564 -58.8618 -59.6211
-62.8236 3.02379 5.71487 4.20501 4.23393 -32.7315 -42.3208 -46.807 -28.099 65.0339
61.3936 42.2525 42.0163 -45.7749 -58.4801 -12.5215 -8.90477 -0.309875 -25.9632 -45.3733
43.8011 45.182 65.2762 67.4101 -59.0856 -57.9755 -58.4368 -0.234869 -12.0731 -15.849
-14.0435 -25.4888 -29.7838 -62.7481 44.6999 22.3277 22.6505 12.0349 12.3489 12.5594
13.5123 22.5528 45.2696 11.1952 12.8805 12.2923 13.6434 -66.1152 -66.0014 -63.4213
-63.372 -63.911 -64.3932 -64.7875 46.4772 67.4915 -66.2889 -65.1525 -66.2566 -66.3357
-29.886 -34.9102 -31.9354 -12.0846 -0.599396 -4.45895 -54.2879 -52.8678 -63.2304 -11.2316
1.71337 1.37975 -11.4171 -65.6797 -62.7432 -55.1258 -10.3717 -7.86588 -1.51364 3.52699
-8.60075 -6.05011 -19.3475 -42.1758 -47.0828 -41.8452 -58.0038 -58.6651 -58.9003 -3.88254
-17.6538 -18.6489 -4.86848 -61.3169 -57.3248 -61.6211 -2.84589 -8.14581 -15.6977 -9.25919
68.4286 47.6909 -57.0573 -57.4109 -60.9296 -60.9181 -59.7532 -56.1019 -61.6632 -59.1262
-60.0806 -62.9817 -63.1612 -63.3525 -27.6538 -71.6771 -90.2009 -94.4025 -94.0515 -93.4914
-41.0573 -53.4295 -57.7769 -51.7243 -49.4945 -98.3755 -101.177 -73.147 -34.6881 -61.9187
-62.0315 -62.596 -62.3772 -64.1384 -65.5266 -65.0722 -64.732 8.24158 7.69041 10.1922
-61.1299 -60.8488 -61.2863 -59.8253 -60.1444 -59.7364 -59.8925 -58.7376 -58.7043 3.56162
3.38931 2.90284 2.97705 4.00242 4.74277 1.68639 -59.8742 -61.1585 -61.1962 6.00706
6.50412 3.48148 2.0074 3.77388 -29.4042 -37.1149 -35.3754 -27.8114 -57.7313 -58.2417
-61.9515 -62.1311 -58.3906 -59.7177 -38.2876 -44.0345 -44.5464 -37.1387 -50.6122 -54.6748
-52.0862 -52.0367 -51.8702 124.751 132.563 147.638 147.729 -63.343 -61.7747 -62.2507
-65.1429 -66.1715 7.58242 5.37181 7.14815 8.87865 -7.85149 -2.78733 -4.06174 -6.72541
-8.95579 -36.3785 -37.0599 -24.1247 -23.2925 -28.7325 -36.1157 -19.0951 -20.7745 32.7171
43.0694 53.7586 39.0818 23.9608 22.7317 36.5776 28.5168 0.996547 1.16776 2.25913
34.319 25.1459 17.3743 22.6427 3.69707 4.32912 4.92312 4.99207 3.21531 6.28933
6.31798 4.04495 -7.53613 -5.78997 -0.756487 -9.15413 15.2106 9.53762 11.2385 -57.6618
-61.4786 -61.5711 -57.8143 -75.4481 -74.2138 -77.3206 -48.1171 -9.33167 -16.2351 -23.3228
-58.576 -55.7514 -58.7524 -59.5123 -77.7581 -77.7268 -61.9227 -63.0934 -51.1587 -54.3256
-57.5008 -56.1943 4.03702 4.07695 1.95588 5.16711 4.89363 4.10653 4.67393 4.94
5.28211 -59.5162 -56.8892 -62.1734 -61.3679 79.3838 94.421 86.0513 112.428 106.724
89.2518 90.6166 162.025 164.279 153.445 121.972 98.8739 104.816 97.7753 117.994
-13.0989 -27.9387 -31.9479 -5.60075 -27.2701 -55.0883 -43.8466 -6.17169 95.2233 102.599
88.1156 79.6079 97.7782 89.6257 108.868 149.358 158.988 167.857 165.515 107.551
103.876 160.496 -39.231 -9.76577 -45.1382 -34.8307 -56.8245 140.741 140.572 116.238
111.258 110.809 116.092 140.038 139.402 108.632 167.295 170.926 172.088 172.34
173.932 186.687 186.857 175.018 173.496 -32.0815 -41.4735 -32.4852 -62.111 -54.5265
-43.4762 -41.7707 -40.2277 -24.7252 5.12145 -0.0448799 2.67182 173.62 175.548 187.237
172.644 186.53 187.158 175.456 172.337 179.55 181.676 170.389 169.18 180.354
168.164 171.255 182.999 -58.4868 -41.0262 -39.6557 -60.2898 -60.8813 -60.246 -38.4315
-50.7183 -37.7557 -37.1525 -49.6546 -49.6858 -2.41906 -7.75401 -25.1949 -24.5629 -32.6951
-45.2565 -32.3146 -31.3562 -44.1981 -18.8785 -14.3478 -17.6495 116.104 140.708 138.786
139.664 115.448 110.129 170.304 170.158 170.683 168.029 137.14 109.28 114.425
137.849 -61.2892 -57.0359 -56.1841 -54.7545 -59.9575 -49.3677 90.4787 93.7337 78.9748
-8.5817 -0.305937 -0.461527 -13.6057 57.019 59.0943 72.8366 75.8704 -59.6279 -59.3917
-59.5802 -59.5453 -60.7542 -61.4013 -61.8858 -61.6919 -64.5574 -63.1968 -61.2635 -63.0342
-119.81 -96.0242 -65.9593 -89.8026 -92.0485 -91.5946 -91.5898 -76.0265 -82.3569 -95.1336
-66.7232 -79.6519 -125.405 -131.014 -124.745 -98.4749 -99.2675 -62.7636 -61.1251 -61.2167
-64.6165 -64.4712 -61.1893 -60.2082 9.65828 10.9966 14.0507 17.0049 13.8945 -53.2817
-51.4303 -45.0692 -46.6468 -40.9151 -40.2763 -40.2311 -40.8712 13.1723 12.9237 15.4881
8.10133 7.67893 8.74744 9.06942 9.05434 7.86605 6.98649 7.92912 9.8008 11.0364
9.87334 1.4355 0.0955218 -1.65638 6.24967 5.23042 4.71188 6.25226 6.4009 -56.8763
-57.0645 -59.5965 -59.5892 -53.25 -53.2315 14.0205 16.5834 17.8559 -42.9706 -49.8341
-50.2408 -41.6332 -40.924 10.3805 10.1182 10.1512 9.54172 7.29105 -1.22596 0.0633129
7.90534 5.23651 5.25347 -53.1334 -52.4595 146.334 148.316 140.764 136.922 113.373
118.279 125.707 121.206 184.346 185.528 182.081 178.364 -64.4136 -64.8181 -60.5595
-60.1063 169.945 183.483 185.197 173.259 174.707 186.635 171.292 182.25 169.844
179.559 -14.5539 -14.92 -19.5039 -20.4634 -20.0661 -15.7393 -3.77924 1.09433 -0.429929
-5.11224 -9.50689 -7.98555 -1.06183 -9.5119 -10.4172 -15.402 -18.998 -8.1925 -8.99204
-26.1712 -20.8551 -9.79306 -0.367265 -3.03268 6.63047 -3.04668 6.61429 7.69495 3.80723
3.82081 4.44677 3.73698 8.17146 6.47496 4.49817 6.02744 -19.3249 -14.9728 -26.424
-20.1583 -59.8863 -60.87 -61.4628 -61.9074 3.2501 3.39268 4.44969 4.82258 3.88575
4.33944 -14.7354 -40.954 -59.1192 -68.3834 -54.4127 -32.4793 -61.969 11.092 10.6118
10.652 1.03504 3.16119 12.4548 15.8498 7.92862 22.0585 18.6231 9.79025 4.32244
8.27831 9.35542 11.9921 10.3477 5.6405 -59.7643 -46.7699 -50.218 -9.64741 -39.5677
-20.827 -55.6318 -78.2484 108.792 93.1619 106.308 108.428 112.645 111.891 173.085
172.22 173.466 172.812 171.449 186.003 186.003 185.217 -66.4753 -66.3184 174.758
-61.7747 -61.7889 -62.2883 -62.0525 -62.3867 -60.1197 -139.3 -129.841 -129.682 -123.203
-144.825 -129.548 -130.205 -130.363 -119.625 -113.801 -78.4812 -76.4876 -77.137 -74.2529
-119.75 -120.171 -62.256 -61.9061 -60.423 -62.2743 11.7609 9.08372 11.9128 9.254
12.1325 13.322 13.6156 15.1774 15.6781 -59.422 -58.1271 -59.9371 -58.7432 -56.8097
-56.2991 -56.1615 -58.4557 -1.46674 1.95561 0.955756 -0.568575 7.97573 8.32961 6.33375
5.74403 7.12991 8.03831 7.83218 6.72204 1.86083 8.07516 7.04273 6.90876 9.66239
11.7225 10.3477 13.0621 12.7363 -57.649 -59.0211 -58.6651 -58.9096 -57.5047 -55.2688
-55.4181 -53.5003 -55.2896 -55.2991 -55.1419 -51.229 -50.8484 -67.9718 -68.2897 -54.4947
-55.6459 -70.7193 -61.9011 -65.735 -110.622 -114.544 -121.049 -73.0063 -90.438 -99.3426
-73.4703 -91.4874 128.784 113.649 148.328 151.582 -62.5287 -61.4902 -63.0657 -62.8665
-59.9008 144.506 168.18 146.722 -51.2438 -50.4303 -50.6395 -51.664 -52.043 -52.0366
-52.0112 -50.2944 -5.01951 -5.60529 -7.80394 -7.64762 -11.0599 -11.8552 -13.0501 -11.8313
-12.1514 76.2358 87.1493 -49.942 53.346 78.2666 66.4989 75.8954 61.3958 15.0976
12.3429 46.0548 37.1025 7.76902 8.42116 3.97537 5.16767 4.92839 7.30081 6.32305
6.52899 6.87816 7.76366 -51.4765 -50.8172 -51.0881 -52.0041 2.22544 1.27635 0.878534
4.51472 4.94682 4.79943 5.36554 5.15532 -50.7669 -50.2384 -49.7334 138.22 136.254
171.308 184.765 189.363 189.682 187.012 185.317 -64.3644 -64.4056 -64.6033 -64.9701
-61.2478 -42.3245 -43.9948 -44.5784 -42.8673 -44.2564 -46.7886 -60.1264 -60.2207 -60.9296
-64.5331 -64.6682 -64.6344 -65.0587 -64.5964 -61.2042 -106.647 -103.416 -127.366 -104.07
-131.161 -121.134 -123.238 -130.925 -60.5144 -64.4207 -61.7367 -59.6224 15.4399 13.9142
13.1406 14.514 14.4417 15.4815 -33.5784 -32.6295 -25.7768 -25.5275 -38.9783 -38.4404
-43.3385 -43.6161 -51.0109 -50.9968 -41.5903 -54.8506 -54.1683 -0.691225 2.38943 -4.03872
1.61915 2.29574 7.09713 7.07343 7.19803 4.28476 8.3302 6.92708 7.43496 8.93131
9.24587 9.4319 9.56669 9.95041 9.92219 2.38578 10.1002 10.5702 11.3469 3.14591
2.79462 2.69023 3.16634 -60.1796 -59.9958 -53.0995 -58.7101 -42.5393 -43.1855 -35.9365
-43.6311 -44.0822 -50.1185 -51.2524 -51.0367 -49.7705 -51.0071 -43.2816 -51.1196 -43.4312
3.01297 -49.1637 -49.0248 140.835 131.748 129.433 129.4 129.775 114.464 107.14
188.609 188.111 187.119 -56.7166 -56.9175 4.32427 5.01622 5.90102 -23.3014 -24.9875
186.124 186.982 180.543 183.532 182.344 182.18 -28.8326 -23.402 2.5188 -0.999847
0.375137 2.7583 -16.695 -5.96951 -2.88189 -6.32747 -12.0744 -4.88094 81.283 57.0963
61.8632 21.5078 21.9841 68.7119 111.337 10.5835 6.96427 -2.22265 -2.12541 5.23644
5.56684 5.73087 4.82252 4.99224 26.1707 18.4221 2.73998 22.0957 0.320417 5.6037
5.82876 5.77131 68.8735 110.948 -58.2072 -59.0023 20.3742 92.1187 109.154 102.494
94.6192 109.838 111.279 128.035 135.368 144.012 -65.0313 82.1991 74.2174 51.4509
17.4643 23.0692 21.1642 -63.9599 -62.2786 -62.2776 -62.2776 -58.7456 -58.6738 -63.3555
-58.9186 -63.3021 -63.8911 21.7378 -5.00643 5.69761 9.5055 9.71591 0.868567 0.802356
-0.389977 -59.4513 -55.3011 1.34912 3.22542 3.43558 -61.571 -60.672 -59.6606 8.82794
8.56659 6.46447 -60.1605 43.65 50.7283 -59.3981 -51.1007 19.9042 17.1132 8.11297
6.59767 5.03847 7.74995 6.58698 -51.1455 -51.8889 -51.4314 -50.7844 -58.2281 -52.537
-51.5467 -58.6051 -58.6121 -58.5782 -58.3855 -59.2583 -59.1312 -58.6178 -58.6547 4.36898
-51.5598 -53.6557 -53.3196 100.821 129.188 144.703 155.047 168.058 162.872 160.665
148.766 188.025 -59.6954 -61.8095 -56.999 -4.57394 -7.44653 0.147506 -52.0799 -51.9414
-52.2079 -52.4989 -55.3816 -45.5624 -51.1361 -50.2685 -47.1648 -48.2184 33.2817 25.1188
-101.099 -108.788 -108.675 -109.033 -109.22 -77.9539 -99.1878 -77.9582 15.2964 17.6957
-3.78085 10.7407 9.85517 -2.8171 -3.55069 4.3788 2.76497 1.57418 1.53186 0.550869
-0.553969 0.363907 4.04558 3.75059 1.65971 3.30535 3.87258 2.74021 1.67696 15.5034
18.4759 -51.2274 6.30839 9.07701 7.24987 11.0859 5.64861 7.87836 9.56296 10.3158
3.97619 3.81338 5.37154 5.19261 -0.183382 -1.49501 -3.19756 -3.17118 3.34569 2.13346
4.17948 8.96852 13.2317 14.8294 8.70486 4.99034 3.18013 3.0471 6.19461 9.34261
10.0593 10.5675 9.45972 5.02143 -0.645962 4.93847 -0.244315 2.83758 -0.666576 2.80905
9.80359 7.39977 11.1081 5.73766 8.88721 10.6388 9.71032 9.45288 5.86979 7.94196
8.53909 8.81819 5.90686 5.91397 5.67198 3.91955 -4.61566 -6.86649 -5.30436 3.83895
3.74449 5.72136 3.78625 -6.57299 -6.83858 1.73508 5.88663 5.13021 0.367991 4.99777
-130.499 -132.713 -133.111 11.673 -60.5517 -57.1165 -56.9403 5.035 8.33946 5.656
7.4699 12.4945 -60.5429 -60.7298 -58.4602 -56.575 -55.352 -55.4368 -56.1036 -62.5098
-106.809 -108.759 -104.442 -109.049 -51.4089 -51.9783 -49.4236 -49.1421 -49.8936 -48.6161
-10.2818 -10.3164 -11.6632 -51.1965 -50.9205 -50.6182 4.5361 2.59341 4.03603 4.27551
-50.3883 -50.741 -51.0961 141.535 150.828 -64.7123 -56.7099 15.5227 15.7833 9.61804
6.72618 9.40734 12.2589 4.05475 3.56067 5.04163 3.52099 -51.3945 -60.1414 -59.9275
-59.0474 7.68702 12.725 9.44839 3.70209 3.77033 8.81898 7.77793 8.11579 7.86023
8.49574 9.99701 8.48031 7.27116 5.90613 5.87881 -56.8277 -52.6927 -50.4305 93.6038
83.0293 86.7183 70.2078 75.9402 -2.8475 -0.940889 1.48026 -0.174202 7.70859 7.91646
7.84196 8.06243 7.951 7.74426 7.26004 118.643 108.33 96.3527 -77.8838 -61.5419
-59.8982 -58.6017 -58.3197 -58.3049 -58.2726 163.826 140.368 162.278 162.396 11.8152
9.53334 13.3439 14.2262 7.60267 9.25172 7.60616 7.30067 6.33115 3.40947 -1.93931
4.36802 4.70039 4.84657 3.84829 6.12293 13.0218 8.124 -6.9447 14.2967 9.69625
6.32325 6.86084 14.3758 8.38075 -9.55802 -9.99359 -9.24539 -0.609374 -2.83209 -7.22082
8.27705 4.80737 -10.7186 -10.8544 4.96664 4.24458 0.197848 -0.92225 -58.6617 -42.9327
15.2567 1.34431 -0.398582 -0.827394 3.96816 3.9879 4.33354 3.77025 3.72231 3.52468
0.557884 6.6113 7.74189 0.371715 4.19221 3.75381 4.91135 4.42173 4.21818 107.549
88.7571 123.506 124.818 4.89955 4.66958 3.46338 -59.0013 4.86703 5.854 5.7113
-7.07744 -9.39785 0.662969 6.46335 6.77189 6.98776 9.85158 5.93119 9.14258 4.63363
38.5056 -50.1061 -59.4458 -58.8461 -58.9165 -58.9603 -0.939465 -1.68559 -7.37318 -7.2595
-7.26511 -0.592098 6.48148 2.89283 4.23882 5.89975 2.89756 2.73446 1.49596 0.927288
-8.73443 -4.46908 -3.44995 -8.00951 -2.93561 -7.33771 3.70693 -5.73312 -7.23176 -0.0423285
0.440466 3.99953 3.94781 3.42964 7.54619 0.486388 4.3944 -2.21863 -1.40238 4.1922
0.600658 6.81676 4.92958 -7.52911 8.28121 -1.26779 3.9106 1.32101 1.87775 3.92569
3.838 3.9324 4.27556 2.71397 7.09087 8.13663 5.46186 6.04776 0.542394 3.03157
9.12543 7.84016 2.99404 -0.128167 3.93698 173.198 177.077 176.472 180.818 169.561
168.822 173.379 179.978 180.912 70.2004 74.3863 55.8883 -62.0817 -40.184 -36.822
-33.8663 -25.6287 -43.5321 -54.8296 -54.3195 -58.8761 -49.3373 100.961 155.255 162.929
156.109 147.599 -64.2351 -64.0594 -63.2487 -63.9035 -61.6851 -64.0105 -60.9597 -61.1471
-61.0497 8.27656 4.20883 171.542 -12.2292 186.051 190.247 189.38 -54.7869 -49.6777
183.072 186.913 186.569 -14.7332 -53.3734 87.069 -59.4165 -59.5608 -59.6035 -59.8074
-51.2641 189.652 2.13641 189.624 185.659 189.21 8.20832 -60.8163 110.796 110.091
-61.95 4.93389 -57.619 -59.8373 -57.8841 -132.758 139.375 -59.1716 159.045 -58.171
-109.274 -109.218 75.2951 6.73841 4.75122 168.919 165.544 -13.8506 140.31 191.039
189.972 185.101 189.209 190.776 189.714 173.053 191.155 186.824 189.947 191.102
0.661841 0.657117 0.683959 0.756792 0.979428 1.70368 2.30135 -4.25778 1.39382 0.0227088
-4.3886 -6.28114 0.5003 0.0523735 -0.0936168 -0.0177598 0.0737975 0.0968169 0.0645532 0.0175126
-0.0162 -0.027717 -0.0213692 -0.00478454 -55.2909 -53.414 -119.157 -119.676 -50.2978 -50.3929
-52.0402 -50.1829 -50.2188 -52.1212 -52.4744 -50.1498 -97.8775 -78.7333 -51.2039 -49.305
-78.1795 -51.0838 -53.8504 -54.3837 -52.9684 -92.1777 -103.323 -115.934 -108.757 -108.622

U 3 2021 float
20.0109 -0.0530311 -0.220017 20.0499 -0.0369497 -0.0759395 19.9288 -0.010037 -0.0992329 19.9374 -0.0642188
-0.618028 20.0194 -0.0683895 0.0430548 20.0197 -0.0682673 0.043085 20.1786 -0.0869495 0.0625572
20.2471 -0.0949934 0.0714656 20.2949 -0.0995089 0.160985 20.3097 -0.119522 0.288382 20.2249
-0.123045 0.228783 19.9594 -0.057026 0.02261 19.996 -0.0645678 0.020535 20.0045 -0.0632562
0.00887409 19.8716 -0.0334488 0.0214079 19.8707 -0.0298749 0.0176397 20.009 -0.0621942 0.00296447
19.8755 -0.0274793 0.0124428 20.0081 -0.0605865 0.00121312 19.8759 -0.025223 0.0109528 20.0062
-0.0588978 0.000722237 19.8751 -0.0230457 0.0105502 20.0048 -0.0573504 0.000698908 19.8745 -0.0211807
0.0104904 20.0038 -0.0559997 0.000902698 19.8744 -0.0196304 0.0106013 20.0029 -0.0548318 0.00119133
19.8744 -0.0182815 0.010844 20.002 -0.053825 0.001437 19.8743 -0.0171605 0.0111066 20.001
-0.0529518 0.00161511 19.8741 -0.0161604 0.0114493 19.9995 -0.0521246 0.00165443 19.8739 -0.0152684
0.0116596 19.8738 -0.0149063 0.0116371 19.9991 -0.051862 0.00162145 19.9996 -0.000411708 3.12423e-05
20 0 0 20 0 0 19.9996 -0.000410759 7.82649e-05 19.9982
-0.000957769 9.58188e-05 19.9983 -0.000965894 0.000283101 19.994 -0.00189156 0.000374222 19.9939 -0.00184806
0.00102178 19.978 -0.00349103 0.000296099 19.9788 -0.00381332 0.00361385 19.9455 -0.00772785 -0.00942177
19.9346 -0.00841043 -0.00899998 19.9374 5.3387e-08 -0.0150668 19.9269 -0.00812872 -0.0305487 19.9044
0.00273271 -0.0633196 20.2486 -0.0813455 0.00428315 20.0547 -0.0349811 -0.0582931 20.2508 -0.0803005
0.00777634 19.9411 -0.103146 0.0342876 20.0311 -0.129275 0.0919046 20.2468 -0.0949647 0.0709109
19.8732 -0.0392295 0.0275035 19.2744 0.134007 0.0200903 19.3047 0.132585 0.0207667 19.3342
0.128595 0.0199976 19.356 0.1256 0.0198598 19.3739 0.122839 0.0199769 19.3903 0.120061
0.0200726 19.4058 0.117283 0.0201002 19.4202 0.114596 0.0201258 19.4336 0.111985 0.0201117
19.4457 0.109576 0.0201458 19.4594 0.107013 0.020116 19.4677 0.105538 0.0200181 20
0 0 19.9996 -0.000410543 0.000137789 19.9984 -0.000961806 0.000499645 19.9943 -0.00184387
0.0017594 19.9792 -0.00392842 0.00613732 19.9168 -0.0107285 0.00951847 19.9169 -0.0102063 -0.000640734
19.8479 -0.0204923 -0.0993947 19.7883 -0.0244487 -0.0723518 19.9554 -0.061335 -1.03969 20.4459
-0.0852152 -0.94823 20.2269 -0.0664828 -0.516252 19.932 -0.0642335 -0.648013 20.3325 -0.161207
0.489906 20.333 -0.161983 0.493588 20.1178 -0.247302 0.626192 19.9923 -0.24817 0.325295
19.8964 -0.209552 0.164134 19.7481 -0.121345 0.0597079 18.7349 0.121687 0.138576 19.2649
0.13445 0.0198783 19.2685 0.13344 0.0189271 17.3048 0.478632 0.0117327 18.2766 0.243005