# vtk DataFile Version 2.0
sampleSurface
ASCII
DATASET POLYDATA
POINTS 2021 float
-0.500032 0 0.11501 -0.499951 3.38813e-21 0.0392727 -0.789037 8.47033e-21 0.120673 -0.500013 -1.35525e-20
0.193965 1.00003 0 0.0485099 1.00003 0 0.0478584 0.475202 0 0.0353615
0.250044 1.41878e-20 0.0305359 0.2506 -5.42101e-20 0.117067 0.251301 0 0.203885 0.364989
0 0.203772 1.75002 0 0.113255 1.75002 0 0.0564279 2.50001 6.89146e-18
0.059229 2.21354 0 0.250758 2.50001 0 0.252875 3.25001 -3.47927e-17 0.0598775
3.25001 -1.69407e-21 0.253888 4.00001 5.60566e-18 0.0599857 4 0 0.253986 4.75
-1.79088e-17 0.0599988 4.75 8.47033e-22 0.253998 5.5 -2.79246e-17 0.0599999 5.5 -4.23516e-22
0.253999 6.25 1.01187e-17 0.06 6.25 0 0.254 7 2.93732e-17 0.06
7 0 0.254 7.75 -2.65294e-17 0.06 7.75 0 0.254 8.5
1.8923e-17 0.06 8.5 0 0.254 9.25 -2.88552e-17 0.06 9.25 -5.29396e-23
0.254 10 -2.64698e-23 0.254 10 0 0.06 -4.24997 0 0.0599042
-5 0 0.0599861 -5 0 0.253986 -4.24997 0 0.253912 -3.49995
0 0.0593815 -3.49994 0 0.253441 -2.74993 0 0.0570188 -2.74991 0
0.251316 -1.99991 0 0.0492276 -1.99987 0 0.242776 -1.24992 -1.69407e-21 0.03
-1.24985 1.23328e-17 0.222327 -1.24989 3.38813e-21 0.125756 -0.874924 2.08116e-17 0.03 -0.874929
0 0.122356 -0.124951 -8.47033e-22 0.03 -0.499941 0 0.03 -0.124922 -8.47033e-22
0.0385291 1.00021 0 0.231242 0.625368 0 0.203537 0.25004 -2.11758e-22 0.03
1.75003 0 0.247334 1.92873 1.69407e-21 0.441438 2.50001 0 0.447397 3.25
-1.69407e-21 0.447898 4 0 0.447986 4.75 0 0.447997 5.5 -4.23516e-22
0.447999 6.25 4.23516e-22 0.447999 7 0 0.448 7.75 -1.05879e-22 0.448
8.5 0 0.448 9.25 0 0.448 10 -2.64698e-23 0.448 -5
-8.47033e-22 0.447985 -4.24997 0 0.447919 -3.49993 0 0.4475 -2.74988 0
0.445609 -1.9998 6.77626e-21 0.437758 -1.24969 1.61411e-17 0.417681 -1.24976 -6.77626e-21 0.31973
-0.875161 7.70461e-18 0.216228 -0.875403 0 0.312476 -0.499924 -8.74138e-19 0.250039 -0.312433
0 0.250037 -0.312436 0 0.200025 -0.499924 0 0.200026 0.250062 3.38813e-21
0.24921 0.250039 -1.69407e-21 0.250046 0.250032 0 0.300069 0.437526 3.05948e-18 0.300066
0.625026 0 0.30005 1.00072 -8.23994e-18 0.326497 1.00196 0 0.423 1.75013
0 0.439575 1.75013 1.77877e-20 0.448245 1.00135 0 0.537141 1.00002 0
0.61834 1.74999 2.71051e-20 0.633055 2.49999 -3.38813e-21 0.641448 3.25 0 0.641907
4 -1.69407e-21 0.641985 4.75 -8.47033e-22 0.641996 5.5 -4.23516e-22 0.641998 6.25
0 0.641999 7 0 0.641999 7.75 0 0.642 8.5 5.29396e-23
0.642 9.25 -5.29396e-23 0.642 10 0 0.642 -5 0 0.641985
-4.24997 -1.69407e-21 0.641926 -3.49993 0 0.641557 -2.74988 0 0.639897 -1.99989
6.77626e-21 0.63382 -1.25099 2.55465e-18 0.614606 -1.25 -2.71051e-20 0.515981 -0.878244 0
0.50789 -0.875961 2.71051e-20 0.459694 -0.875609 0 0.410432 -0.498432 0 0.400603
-0.498071 -1.70762e-18 0.413126 -0.450805 0 0.413349 -0.45095 0 0.400955 0.250009
1.89735e-19 0.412703 0.25 2.71051e-20 0.425212 0.296872 1.00289e-18 0.425187 0.343754 -2.71051e-20
0.425153 0.343763 0 0.400146 0.250006 0 0.400175 1.00162 1.41488e-17 0.520353
-2 4.23516e-22 0.820145 -2.09502 -2.11758e-22 0.830091 -2 0 0.829497 -1.25123
0 0.813251 -1.25126 0 0.713737 -1.25101 6.77626e-21 0.62198 1.00059 0
0.714169 1.00094 0 0.809205 1.75018 0 0.82775 2.5 0 0.835521
3.25 0 0.835917 4 -1.69407e-21 0.835986 4.75 -8.47033e-22 0.835996 5.5
0 0.835998 6.25 0 0.835999 7 0 0.835999 7.75 0
0.836 8.5 0 0.836 9.25 0 0.836 10 0 0.836
-5 -8.47033e-22 0.835986 -4.24997 0 0.835935 -3.49995 0 0.835616 -2.74991
0 0.83419 -0.970118 0 0.703382 -0.87455 0 0.699864 -0.874264 -2.71051e-20
0.649852 -0.874033 -2.71051e-20 0.599873 -0.49698 0 0.599585 -0.497345 -9.21572e-19 0.612046
-0.450014 0 0.611892 -0.44938 2.71051e-20 0.599454 -2.00002 0 0.84097 -1.84639
-3.38813e-21 1.02215 -1.25185 0 1.01276 -0.896512 -3.38813e-21 0.900668 -0.908183 6.77626e-21
0.801076 -0.904022 -1.86347e-20 1.00093 0.624925 0 0.799916 0.249931 0 0.799891
0.249978 0 0.899916 0.249997 0 0.999939 0.999987 0 0.999957 1.75061
-2.1684e-19 1.02409 2.50003 0 1.0296 3.25 -1.69407e-21 1.02993 4 0
1.02999 4.75 0 1.03 5.5 0 1.03 6.25 2.11758e-22 1.03
7 0 1.03 7.75 0 1.03 8.5 5.29396e-23 1.03 9.25
0 1.03 10 0 1.03 -5 0 1.02999 -4.24998 0
1.02994 -3.49996 -8.47033e-22 1.02968 -2.74996 0 1.02849 -2.00026 0 1.02458
-0.87482 0 0.799893 -0.87491 0 0.899919 -0.49993 0 0.799862 -0.499958
7.6233e-19 0.849889 -0.312476 0 0.849885 -0.312472 0 0.799853 -1.25001 8.04681e-21
1.19601 -0.499979 5.29396e-23 1.10737 -0.731886 2.11758e-22 1.19997 -0.499981 0 1.19997
-0.124987 0 0.999933 -0.477759 -5.29396e-23 0.999933 -0.487556 -1.45584e-22 1.09995 0.250008
0 1.19997 1 0 1.19997 1.7507 0 1.22203 2.50003 -1.35525e-20
1.22368 3.25 0 1.22394 4 0 1.22399 4.75 4.23516e-22 1.224
5.5 0 1.224 6.25 2.11758e-22 1.224 7 0 1.224 7.75
1.05879e-22 1.224 8.5 0 1.224 9.25 0 1.224 10 2.64698e-23
1.224 -5 4.23516e-22 1.22399 -4.24999 -4.23516e-22 1.22395 -3.49998 0 1.22374
-2.75001 0 1.22279 -2.00077 0 1.21965 -1.24997 4.23516e-22 1.19997 -0.499969
-5.29396e-23 0.999933 -0.874942 0 0.999936 -0.499979 -1.32349e-23 1.09995 -2.75001 0
1.36967 -3.18711 4.23516e-22 1.41751 -2.75001 4.23516e-22 1.4171 -2.00072 3.38813e-21 1.29692
-2.00065 0 1.41474 -1.25823 6.35275e-21 1.40014 -0.980416 0 1.39998 -0.499986
0 1.39998 0.250009 0 1.39998 1 0 1.39998 1.75054 0
1.41682 2.50002 -1.35525e-20 1.41776 3.25 0 1.41796 4 4.23516e-22 1.41799
4.75 0 1.418 5.5 0 1.418 6.25 0 1.418 7
0 1.418 7.75 0 1.418 8.5 0 1.418 9.25 0
1.418 10 0 1.418 -5 0 1.41799 -4.24999 0 1.41797
-3.49999 -4.23516e-22 1.41781 -1.24998 0 1.39998 -2.80392 1.32349e-23 1.61143 -2.75
-1.32349e-23 1.6114 -2.0003 0 1.60983 -1.25396 2.64698e-23 1.60004 -1.12789 2.64698e-23
1.59999 -0.49999 1.05879e-22 1.59999 0.250008 0 1.59999 1.00001 4.23516e-22 1.59999
1.75038 0 1.61122 2.50002 0 1.61184 3.25 -4.23516e-22 1.61197 4
-4.23516e-22 1.61199 4.75 0 1.612 5.5 0 1.612 6.25 0
1.612 7 0 1.612 7.75 5.29396e-23 1.612 8.5 2.64698e-23 1.612
9.25 -1.32349e-23 1.612 10 -1.32349e-23 1.612 -5 0 1.61199 -4.24999
0 1.61198 -3.49999 0 1.61187 -1.24999 0 1.59999 -2.75 -1.32349e-23
1.63714 -2.64195 -2.11758e-22 1.80559 -2.00012 -8.47033e-22 1.80492 -1.25741 0 1.80004
-1.19082 -7.94093e-23 1.8 -0.499992 1.05879e-22 1.79999 0.250006 2.11758e-22 1.79999 1
0 1.8 1.75023 0 1.80561 2.50001 3.38813e-21 1.80592 3.25 0
1.80599 4 0 1.806 4.75 2.11758e-22 1.806 5.5 0 1.806
6.25 0 1.806 7 0 1.806 7.75 0 1.806 8.5
2.64698e-23 1.806 9.25 0 1.806 10 0 1.806 -5 0
1.806 -4.25 -2.11758e-22 1.80599 -3.49999 0 1.80594 -2.75 -1.05879e-22 1.8057
-1.24999 0 1.8 -2 -4.76456e-22 1.98532 -1.20969 -1.65436e-23 2 -0.499993
0 2 0.250006 0 2 1 0 2 1.75 0
2 2.5 0 2 3.25 0 2 4 0 2
4.75 -1.05879e-22 2 5.5 0 2 6.25 0 2 7
5.29396e-23 2 7.75 0 2 8.5 0 2 9.25 0
2 10 -1.32349e-23 2 -5 2.21817e-18 2 -4.25 1.05879e-22 2
-3.49999 0 2 -2.74999 0 2 -1.99999 -5.29396e-23 2 -1.24999
3.30872e-24 2 0.0956945 -5.42101e-20 0.203879 0.0632748 0 0.203876 0.0625511 0
0.250042 -0.403589 6.77626e-21 0.40138 -0.405779 7.7927e-19 0.38799 -0.406379 -6.77626e-21 0.375196
-0.499567 -1.35525e-20 0.375265 0.250006 -6.50521e-19 0.375144 0.156247 0 0.375155 0.156237
9.41901e-19 0.400212 0.203129 0 0.400201 0.249796 0 0.59991 0.249852 -1.0842e-19
0.587433 0.202953 0 0.587417 0.202888 6.50521e-19 0.599901 0.625121 -6.77626e-21 0.499953
0.717439 6.77626e-21 0.504955 0.625095 6.77626e-21 0.475379 0.343596 1.0842e-19 0.599918 0.343639
0 0.574939 0.296781 0 0.574964 0.249926 0 0.574977 0.62499 -4.2826e-18
0.549927 0.624917 4.55365e-18 0.599925 0.203133 0 0.412725 -0.449046 0 0.587135
-0.496581 5.42101e-20 0.587161 0.625036 -9.32414e-18 0.40006 0.625067 1.13164e-18 0.450032 0.249704
0 0.624881 0.155871 0 0.599866 0.155839 1.95156e-18 0.624853 0.249886 1.35525e-20
0.749873 0.062411 0 0.749846 0.0624478 -4.26227e-18 0.799869 -0.312472 0 0.749804
-0.499901 -3.38813e-21 0.749824 -0.691227 0 0.30453 -0.499912 3.02221e-18 0.300065 -0.875784
-3.11708e-18 0.361353 -0.592465 -2.71051e-20 0.40036 -0.499854 0 0.350135 -0.687111 1.35525e-20
0.350117 -0.68656 -2.71051e-20 0.40021 0.437526 -1.35525e-20 0.400108 0.437522 6.77626e-21 0.350086
0.250015 -2.51399e-18 0.35011 0.625027 3.38813e-21 0.350064 -0.592287 0 0.425286 -0.498048
0 0.425444 -0.873902 5.42101e-18 0.54992 -0.496663 0 0.574746 -0.591532 0
0.574798 -0.591729 0 0.599734 -0.149108 0 0.406489 -0.149477 -5.29396e-23 0.403592
-0.149678 0 0.406489 -0.451876 -2.1684e-18 0.499977 -0.451579 0 0.487563 -0.498366
0 0.487552 -0.498515 -1.0842e-19 0.499993 0.437553 0 0.450075 0.437532 -6.07153e-18
0.425113 0.254621 -1.25361e-19 0.496697 0.26485 -5.42101e-20 0.498023 0.264831 0 0.496529
0.254636 -2.30393e-19 0.49668 0.570241 0 0.499932 0.437665 -2.71051e-20 0.474991 0.437859
-2.71051e-20 0.49988 0.437372 -1.0842e-19 0.599915 0.249722 3.25261e-19 0.649874 0.43732 -5.42101e-20
0.649899 0.624872 0 0.649914 0.624883 -3.95734e-18 0.699913 0.43734 6.83047e-18 0.699894
0.249817 0 0.699869 -0.592227 0 0.624743 -0.498071 -2.71051e-20 0.624658 -0.499769
6.77626e-21 0.69979 -0.687025 0 0.699824 -0.150854 -1.03677e-18 0.599678 -0.151059 -6.77626e-21
0.605522 -0.127339 6.77626e-21 0.605681 -0.127867 0 0.599582 -0.406139 -4.40457e-20 0.699754
-0.406113 0 0.674749 -0.499634 0 0.674774 -0.18433 -4.23516e-22 0.674527 -0.163626
-4.23516e-22 0.678958 -0.165125 0 0.674537 -0.171868 4.23516e-22 0.674524 -0.14924 3.34737e-19
0.400169 -0.125737 0 0.400165 -0.12551 0 0.393854 -0.149076 -2.11758e-22 0.393877
-0.499925 -2.61564e-18 0.325088 -0.406241 0 0.325087 -0.4062 0 0.300069 -0.124901
0 0.300062 -0.218633 -3.27294e-18 0.299673 -0.218596 1.35525e-20 0.324664 -0.124851 0
0.325085 -0.126061 7.86047e-19 0.406473 -0.0785222 1.30782e-18 0.400166 -0.126118 3.38813e-21 0.41275
-0.0785648 0 0.412729 0.240678 1.0842e-18 0.500153 0.252614 -2.1684e-19 0.498317 0.252386
1.0842e-19 0.496231 0.241035 0 0.496114 0.228892 -1.35525e-20 0.496204 0.228835 6.77626e-21
0.498715 0.229819 2.71051e-20 0.500074 0.25248 0 0.499935 0.240657 -1.6263e-19 0.500957
0.264863 0 0.500154 0.264689 0 0.500951 0.437443 0 0.549896 0.437406
[...]
POINT_DATA 2021
FIELD attributes 2
p 1 2021 float
2.00774 1.43638 2.36863 4.36076 0.0607606 0.0586441 -4.20445 -6.04363 -7.69294 -6.1643 -4.31916
0.496551 0.464377 0.111719 0.326737 0.174871 0.00345206 0.0272307 0.00565932 0.0145257 0.0098038
0.0157246 0.00501063 0.0100775 0.000315829 0.00461811 -0.00131206 0.00235918 -0.00101496 0.00214575 -0.000422987
0.00214956 0.000598719 0.00335131 0 0 0.614057 0.609605 0.609453 0.613771 0.634926
0.634031 0.704847 0.701717 0.926794 0.923512 1.6407 1.76229 1.77748 2.23529 2.4757
-4.05871 1.36637 -4.11155 0.653492 -0.106963 -6.0334 0.572439 0.442793 0.189849 0.0293413
0.0074259 0.00957766 0.00573058 0.00113117 -0.000578704 -0.000266357 -0.000404346 0.00265941 0 0.609021
0.613002 0.631618 0.692689 0.902427 1.95623 2.02894 3.12744 3.87196 7.3216 -3.30353
-1.05428 4.58083 -5.72709 -5.71919 -2.25736 0.345255 0.831985 1.03428 0.929188 0.521861
0.517669 0.848522 0.881081 0.428165 0.167536 0.0232199 0.00247832 0.0066632 0.00450745 0.000542868
-0.000900159 -0.000392774 -0.00025357 0.00286585 0 0.60833 0.611812 0.627983 0.680009 0.862017
1.85026 2.13598 5.13417 5.58809 4.82544 32.5729 36.4578 52.027 45.9831 4.78508
4.93366 3.41753 3.44925 2.70281 4.10756 0.841789 0.807999 0.787529 0.805287 1.39682
1.78579 1.84549 0.993798 0.483469 0.350206 0.127862 0.0137225 0.000622004 0.00709877 0.00629935
0.00269686 0.00122961 0.00151989 0.0020885 0.00351574 0 0.607455 0.610332 0.623552 0.665139
3.25231 3.75084 4.68278 4.76056 34.3611 32.7005 44.627 50.7673 0.801456 0.781219
0.939848 1.70255 2.62741 1.14215 0.0815704 -4.88255 -5.30178 -2.74849 -0.227855 0.191313
0.0733439 -0.00544412 -0.0107909 -0.000807443 0.00102521 -0.00107865 -0.00165943 -0.000789099 0.000320907 0.00129408
0 0.606486 0.60871 0.618727 0.649167 0.740143 2.747 1.73231 5.19087 3.29403
0.559955 -0.670638 0.697807 0.311273 0.312953 0.143027 -1.70932 0.673969 0.281759 -0.974031
-0.393478 0.0980975 0.0648135 -0.00286948 -0.0107875 -0.000906959 0.00159627 -0.000257698 -0.000826191 1.30201e-05
0.00106678 0.00157284 0 0.605521 0.607101 0.613882 0.633049 0.676674 0.692569 0.824023
1.15905 0.324758 0.621826 0.613109 0.618203 0.656422 0.625535 0.566591 0.383955 0.0596201
-0.564278 -0.377445 0.0463113 0.0593208 -0.00429584 -0.0150317 -0.00426265 -0.000646878 -0.00200623 -0.0023225
-0.00131157 -0.000136767 0.000443593 0 0.604658 0.605645 0.609462 0.565936 0.606434 0.606474
0.590467 0.495467 0.426961 0.0772725 -0.435309 -0.348657 -0.000895051 0.0480827 -0.00785581 -0.01869
-0.00635757 -0.00165006 -0.00260673 -0.00273686 -0.00162504 -0.0003843 0.000264974 0 0.603979 0.604473
0.605921 0.494961 0.605495 0.59492 0.570154 0.457827 0.427505 0.0866027 -0.365079 -0.332765
-0.0274208 0.0429939 -0.00825946 -0.019777 -0.00711285 -0.00206682 -0.00292527 -0.00299068 -0.00183158 -0.000564584
0.000129613 0 0.603541 0.603692 0.60358 0.599089 0.456705 0.563887 0.425352 0.0896946
-0.342718 -0.327626 -0.0357154 0.0414634 -0.00835575 -0.0201952 -0.00747173 -0.00229552 -0.00308415 -0.00308759
-0.00188579 -0.000599206 0.00011589 7.93162e-05 0.603387 0.60341 0.602738 0.596571 0.563377 0.444413
-10.2861 -11.1443 -11.7929 70.4848 60.0747 43.8885 29.6717 2.94098 1.71086 4.4272
5.08579 4.15213 4.56924 6.20106 5.4141 2.02646 1.73585 2.14357 2.97348 3.68234
3.37857 3.98489 2.24622 1.9141 6.07708 56.2552 39.4482 1.93915 2.26404 3.64607
4.74526 2.15865 -4.53346 -11.2119 -9.84788 -3.18111 8.46825 7.00285 11.9018 4.74869
17.4622 20.8187 9.1356 10.516 2.58954 1.50616 1.00468 1.66069 19.7292 36.9146
5.61242 39.6474 20.3301 18.8209 -58.6268 -58.4085 -58.6236 68.4642 68.3767 47.5628
44.7974 3.42198 3.12264 -4.9896 0.377865 0.22766 -5.03915 2.5905 3.99226 3.94736
2.86588 1.83325 1.76228 1.62746 0.950138 0.761529 -1.36443 17.007 28.1094 13.3
7.27782 -56.4791 -56.2712 -58.7433 -58.6655 13.8848 19.1236 18.4893 -46.2516 -42.6994
-44.3768 -45.1097 -58.1544 -57.4455 -57.4368 -57.5682 16.6105 15.8815 12.0019 -29.368
-27.9765 -45.3776 -37.0712 -58.7545 -45.9672 -58.5909 -48.0618 10.9993 4.30935 10.5232
11.8606 9.10351 9.37897 9.66691 4.53491 11.1208 0.935645 0.769491 3.72338 3.48009
4.07004 4.32401 47.7564 68.347 -58.7835 -56.4006 6.52154 11.1259 -51.4201 -52.7089
-58.3766 4.50593 6.3142 6.4924 6.52526 -31.4171 -40.0193 -49.4076 -29.7692 64.4093
60.7939 41.657 41.4061 -44.0514 -55.9754 -11.5273 -8.58783 -0.437354 -24.5459 -42.4611
42.9859 44.3131 64.312 66.4826 -51.7785 -49.9485 -50.7147 0.312599 -9.70239 -12.7392
-11.7056 -21.6891 -24.8952 -57.8161 44.0412 21.8522 22.1464 11.7017 12.0182 12.1924
13.1431 22.0237 44.5068 10.7981 12.4609 11.9011 13.2409 -58.5637 -58.5562 -58.0482
-58.0353 -57.3869 -56.7657 -56.3974 45.8204 66.8319 -58.2207 -58.5 -58.8946 -58.1283
-29.7923 -34.9902 -32.6994 -13.7055 -1.57228 -4.89149 -50.5335 -50.1745 -57.9295 -13.1011
0.162421 0.0764293 -13.3338 -58.2172 -56.774 -51.2541 -12.4471 -10.1795 -3.67817 1.58535
-7.39278 -5.62184 -18.6687 -38.3829 -41.4597 -36.3681 -52.2474 -53.2423 -52.9861 -4.14304
-17.5758 -18.3211 -4.76189 -56.0582 -52.002 -56.0937 -3.5725 -9.29861 -16.613 -11.6051
67.5344 46.8713 -54.1266 -54.2899 -56.7297 -56.6285 -56.1357 -53.6083 -57.0246 -53.1718
-55.9108 -58.842 -58.967 -59.0109 -32.0743 -77.004 -96.0234 -100.969 -103.188 -102.747
-48.5177 -50.1981 -54.2125 -48.2445 -49.9755 -98.1747 -99.4408 -71.33 -34.3614 -58.3572
-59.1544 -58.8365 -56.2131 -57.1018 -57.1333 -57.06 -57.4843 7.15316 6.07475 8.9668
-56.0115 -55.6771 -55.9029 -55.4037 -55.5303 -55.7774 -56.1781 -55.035 -55.0198 2.05306
1.84449 0.728075 1.23435 4.19205 4.5669 1.32543 -55.7878 -56.2678 -56.9002 5.8236
6.65528 2.79711 0.891614 3.1627 -32.0635 -38.0883 -37.3214 -31.6459 -54.4585 -54.9554
-57.8847 -57.5724 -54.876 -55.7289 -38.9226 -43.2753 -43.1071 -36.9647 -46.0801 -50.1078
-53.1727 -53.323 -52.1839 123.597 131.457 146.798 146.886 -58.0417 -56.1094 -56.3822
-57.7627 -57.5612 4.49158 2.21093 3.12919 4.72878 -9.74809 -3.93198 -5.85801 -8.88383
-11.766 -39.0315 -36.896 -25.6154 -27.2932 -32.1019 -39.0468 -24.7948 -24.8574 31.1114
41.2917 52.1318 37.9333 23.0766 19.3059 34.2736 26.1641 0.671833 0.8301 1.98848
34.0765 24.8989 17.0793 22.1587 2.89683 3.84194 4.48131 4.59007 3.68661 6.66946
6.77407 4.58449 -9.34152 -8.22182 -1.37357 -10.2254 14.6882 9.14787 10.823 -54.5963
-56.8622 -56.9926 -54.7904 -82.5996 -81.3181 -84.5594 -47.8805 -12.6566 -18.3104 -27.5456
-55.9403 -52.7972 -55.3055 -56.3519 -73.9695 -73.6716 -58.2806 -59.5785 -49.4703 -47.9599
-50.2171 -50.3942 3.76466 3.82876 -0.589904 6.01109 5.66179 4.66997 5.34271 5.75356
6.15635 -54.0976 -53.6123 -68.7056 -67.9157 79.0093 94.1058 85.7054 112.11 106.421
88.8423 90.1561 161.85 164.181 153.361 121.63 98.4095 104.349 97.3048 117.642
-12.8892 -26.9528 -31.2627 -5.8467 -26.1383 -52.0476 -41.7308 -6.32425 93.7332 101.231
86.8117 78.28 96.7043 88.4019 107.614 148.47 158.22 167.409 165.145 106.628
102.906 159.638 -32.6717 -8.01699 -38.3459 -28.5593 -47.7368 140.208 140.077 115.601
110.581 110.242 115.506 139.6 138.984 108.132 167.23 170.835 172.006 172.297
173.709 186.648 186.837 174.816 173.268 -32.9363 -40.0545 -32.8954 -56.4062 -50.7849
-42.6512 -41.8935 -40.6364 -25.5337 2.7995 -2.56989 -0.606998 173.388 175.333 187.189
172.36 186.505 187.149 175.22 172.171 179.599 181.763 170.112 168.88 179.896
167.879 171.097 182.421 -52.6325 -37.8881 -36.6494 -55.685 -55.7525 -55.8373 -36.4371
-46.2852 -36.5205 -36.9542 -45.873 -45.8437 -3.39787 -9.26599 -25.1754 -25.2031 -32.8755
-43.5256 -32.9261 -32.6328 -42.959 -21.1811 -18.8591 -20.6227 115.418 140.138 138.124
139.033 114.676 109.305 170.037 169.911 170.479 167.741 136.398 108.396 113.573
137.149 -57.0784 -54.1238 -52.7536 -52.5798 -55.644 -46.1473 90.1521 93.4218 78.6673
-14.8682 -6.1523 -6.68864 -20.7885 54.5573 56.4196 70.0173 73.6641 -55.7774 -55.0186
-55.3244 -55.7779 -56.9597 -57.2058 -57.3521 -57.4472 -56.0166 -56.1016 -55.6564 -55.776
-134.713 -109.202 -77.656 -95.5728 -97.9312 -99.0669 -99.0585 -83.1871 -78.8843 -92.4208
-70.4688 -85.2049 -132.857 -136.47 -128.423 -96.1093 -96.8733 -54.6693 -54.1126 -54.7916
-55.9289 -56.2215 -53.7491 -53.6607 6.83808 7.39293 13.7901 16.4278 13.8826 -50.9059
-50.1731 -45.6971 -45.9384 -45.9759 -45.7702 -45.7426 -45.525 12.9156 12.6525 16.836
8.26831 8.07033 9.63941 10.1199 10.1458 8.51419 7.33108 8.08445 12.3971 15.7023
13.7238 0.782022 -0.833466 -3.01863 7.04931 6.22578 5.10387 6.42943 7.15607 -52.4732
-53.3334 -56.2926 -55.6307 -48.6388 -49.587 13.6791 15.6516 17.0616 -46.6503 -49.5937
-49.7258 -46.3608 -45.5067 11.3524 11.0964 11.1388 9.55802 6.86628 -6.93856 -5.70576
5.49748 6.31913 6.27592 -48.5153 -48.8248 146.495 148.519 140.938 136.976 113.37
118.322 125.73 121.208 184.606 185.883 182.183 178.425 -55.5996 -55.5378 -52.9499
-52.8569 169.638 183.359 185.058 172.995 174.451 186.572 171.03 182.145 169.627
179.281 -16.9089 -19.1547 -23.9123 -28.1231 -26.7391 -22.8385 -8.67153 -3.35009 -3.80585
-8.98982 -14.0069 -13.6233 -1.03859 -9.07044 -9.93996 -15.0247 -18.1546 -8.22733 -8.98216
-24.9595 -20.2347 -9.65833 -0.780257 -3.05278 6.07741 -3.46591 6.05999 6.82894 3.381
3.91173 4.63505 4.19387 7.73872 6.11349 3.97096 5.82915 -18.9097 -15.9855 -26.3202
-21.4481 -56.3389 -58.0414 -58.6339 -58.5103 3.05117 3.11942 5.06481 5.5441 4.3089
4.90984 -14.575 -40.3156 -57.248 -65.4634 -53.2786 -31.9313 -58.8151 10.7533 10.2096
10.2329 -2.35883 0.281208 11.9752 17.2122 9.51098 23.7327 20.6135 10.4537 1.74646
6.84049 8.32684 13.1094 11.5545 6.8028 -53.4502 -44.022 -49.8704 -13.0519 -43.8812
-24.9358 -60.5909 -83.6829 108.72 92.7951 106.225 108.399 112.768 111.909 172.883
172.006 173.257 172.573 171.275 185.964 185.964 185.199 -57.8761 -58.0963 174.487
-56.1094 -56.1079 -57.0489 -57.2108 -56.9271 -55.6611 -149.639 -136.664 -136.531 -133.076
-157.212 -136.42 -132.42 -132.745 -119.396 -115.081 -80.4541 -73.1492 -73.4142 -70.835
-119.385 -121.032 -56.6881 -55.6929 -54.5863 -57.0653 9.53946 7.17128 10.7218 8.26386
11.0379 12.0708 12.4424 13.433 14.2232 -55.2483 -54.3211 -56.2442 -55.0428 -53.0752
-52.8112 -52.9212 -54.865 -5.91828 -0.439915 -1.37867 -4.55244 9.19501 9.56172 6.82
5.87018 7.58778 9.56374 8.80685 6.73773 1.30186 8.164 7.0525 6.89335 8.71286
10.4453 9.26457 12.0989 11.3784 -54.6659 -55.09 -55.1308 -55.2569 -55.4081 -55.26
-54.7602 -52.7248 -54.0495 -54.0582 -54.0752 -51.0317 -52.4199 -73.7491 -72.982 -57.5942
-59.8762 -77.5593 -68.4023 -77.4206 -123.838 -128.419 -136.042 -79.4949 -97.5415 -107.346
-80.3586 -98.88 128.766 113.603 148.531 151.754 -54.5026 -53.7108 -54.8375 -54.8281
-53.0493 143.892 167.877 146.15 -48.9144 -48.0782 -48.521 -49.295 -49.1102 -49.1278
-49.0547 -47.5535 -8.03379 -9.30961 -11.8384 -10.9612 -14.8278 -16.9843 -19.1139 -16.9127
-17.8303 74.8228 85.5233 -58.4467 51.2616 76.5461 65.0117 75.5889 61.0463 13.8833
10.9982 45.5757 36.5672 8.3402 9.18349 3.64558 5.30722 5.11635 7.78876 6.71959
7.08594 7.47121 8.27577 -52.7074 -52.2643 -51.987 -52.5776 -0.975606 -0.461223 -1.03171
2.30597 5.7153 5.15827 7.11036 6.54158 -50.9019 -51.3104 -51.0336 138.205 136.287
171.187 184.779 189.085 189.372 186.862 185.339 -55.6727 -55.3761 -55.6961 -55.514
-53.0911 -45.4601 -46.294 -46.9357 -46.1392 -46.4775 -47.7746 -56.0011 -56.0253 -56.618
-57.2186 -56.9109 -56.8948 -57.055 -56.6614 -54.9459 -115.681 -111.333 -134.814 -111.24
-133.982 -122.16 -123.577 -133.433 -56.1008 -57.3849 -55.8506 -54.4187 13.7536 12.3698
11.3452 12.5339 12.7642 13.4217 -36.7349 -36.2114 -31.3905 -30.8615 -41.7156 -42.235
-46.3969 -46.0137 -51.0638 -51.1116 -45.4784 -52.0796 -51.7167 -6.11126 -0.898521 -11.3552
0.758369 2.18818 8.0421 7.57544 7.89885 4.35123 10.7006 7.38175 8.78936 10.2441
10.8863 10.7785 10.9191 12.6841 12.355 2.46098 12.4148 14.8069 15.969 3.92139
3.43382 3.17091 3.84704 -58.863 -58.0279 -52.8179 -56.4472 -44.6025 -44.0989 -40.0563
-44.4262 -45.8134 -49.8627 -51.0414 -49.5286 -49.7355 -49.5103 -47.0239 -52.1427 -47.0961
4.24279 -48.2345 -49.4999 141.014 131.826 129.419 129.472 129.852 114.371 106.955
188.662 188.135 187.139 -50.649 -50.9717 -1.25498 -0.683181 0.349177 -29.5364 -30.4709
186.06 186.894 180.372 183.332 181.879 181.508 -33.1803 -29.0003 -3.02259 -7.64368
-5.77493 -3.05939 -24.6403 -13.4943 -10.0827 -13.2883 -19.7103 -4.58504 80.8699 56.5144
60.8512 21.0665 21.4344 68.0125 110.703 10.1645 7.20409 -2.21747 -2.4787 6.86377
7.65726 7.94417 6.14486 6.59579 24.5472 16.3144 -0.384704 19.7794 -1.6995 3.51823
8.18492 8.10758 68.0191 110.207 -54.6627 -55.7595 18.1362 91.6538 109.038 100.411
92.4654 108.079 109.189 126.597 134.337 143.21 -55.7277 81.7181 73.7242 50.5481
12.6167 18.6736 16.8448 -75.3418 -56.7703 -56.7638 -56.7672 -55.2176 -55.1319 -59.8656
-55.4239 -59.9031 -60.4521 23.4165 -6.51545 5.98173 10.5981 10.8254 -1.34527 -1.44785
-2.55606 -55.537 -54.058 -0.976961 2.57275 2.87945 -57.4683 -56.8978 -56.0643 8.01217
7.69983 4.19159 -56.5459 41.6915 49.8125 -66.3261 -58.611 17.7046 15.186 8.99118
6.91312 5.07945 8.51652 6.96449 -54.0811 -54.0444 -52.8606 -52.7831 -55.7569 -52.1439
-51.663 -54.3317 -54.6437 -54.6248 -54.1061 -55.2246 -54.7938 -54.6468 -54.3827 4.51146
-51.6537 -57.7351 -56.7029 100.527 129.163 144.722 155.187 168.099 162.933 160.745
148.745 188.245 -52.7226 -53.6316 -51.9371 -7.36858 -10.4024 -3.20928 -49.6094 -49.6321
-49.6104 -49.8856 -53.0649 -47.1244 -48.6774 -47.4538 -46.9517 -47.6555 28.9112 20.3456
-112.113 -119.706 -119.56 -120.194 -120.537 -73.837 -96.427 -73.8401 13.4578 17.0912
-10.8316 12.0631 11.5075 -5.45994 -7.02103 4.09469 2.49561 0.983633 0.654748 -0.610873
-2.22999 -0.982921 4.14928 4.54663 0.632446 2.86359 4.51835 2.42362 1.34194 13.4003
17.6982 -49.9712 5.52566 12.7774 8.54076 16.471 8.53287 11.2022 14.2031 15.9709
4.81915 5.03432 6.52305 5.94035 -2.00624 -3.91886 -6.15983 -6.05993 4.94477 1.76441
4.44889 9.45405 15.3192 16.5133 8.25049 5.73222 3.12992 2.81766 7.2267 10.6679
11.3179 11.956 11.0978 5.77097 -3.42615 5.64664 -2.67491 3.29747 -3.43506 2.54102
11.0102 8.34474 12.3859 7.0267 9.49 11.4136 10.8144 10.5145 7.98052 8.64171
9.16265 9.4123 7.95343 7.4127 7.42136 6.07923 -5.37267 -8.86731 -7.08694 6.55103
5.95148 8.01302 6.32315 -9.07581 -10.828 1.18313 7.12006 5.95961 -1.5626 5.7427
-136.917 -137.775 -137.961 10.3001 -55.5262 -54.4967 -54.5433 5.26506 9.92262 5.34873
8.40946 11.0445 -55.684 -55.6561 -55.0151 -54.705 -60.9229 -60.4152 -60.8989 -68.9606
-115.898 -119.691 -113.589 -120.407 -48.8719 -49.3982 -47.3499 -47.051 -47.3197 -47.0245
-14.5976 -14.5969 -17.0125 -52.5175 -52.3325 -52.0907 5.16697 1.55745 5.01893 4.99094
-51.8904 -52.3256 -52.4486 141.773 151.122 -55.1731 -50.6383 13.4369 13.9976 11.5908
7.23702 11.4708 18.7092 4.25568 3.37317 4.71237 3.71118 -53.199 -57.1295 -56.9403
-55.1889 7.784 15.0679 11.1264 4.11995 4.26713 10.0948 8.8471 9.53189 8.64289
10.4194 12.4275 10.2806 5.86181 8.60355 8.25109 -54.046 -50.0585 -48.4205 91.2572
80.2968 84.2526 66.795 72.7759 -4.77696 -2.89652 0.346484 -1.43667 7.67967 8.18636
7.73196 8.31156 8.07169 7.57136 7.1182 116.852 106.811 94.7704 -73.7646 -57.1745
-55.8767 -54.7479 -54.5691 -54.191 -54.162 163.482 139.765 161.892 162.002 7.76153
4.64081 10.7166 11.4284 7.24965 8.58263 7.48036 6.9447 6.19796 2.79029 -2.34069
4.80548 5.44513 6.02881 4.39061 6.69241 14.4621 9.07674 -12.6684 15.6016 14.2822
7.6613 10.7668 15.9879 9.16048 -12.5484 -13.4624 -11.5457 -2.75876 -4.76057 -13.0102
7.26459 5.35971 -14.5643 -16.1669 7.26028 4.91012 -0.921768 -3.76958 -54.9508 -45.7955
13.1727 1.97764 0.314784 -0.0765405 6.0399 5.599 6.5344 6.12051 6.07659 5.6573
0.395314 6.31795 6.95155 -0.340818 5.77681 4.8019 7.24178 6.73677 6.16357 106.231
86.7055 122.042 123.828 5.24677 4.97657 3.53476 -55.1653 5.17638 6.15406 5.93269
-9.54167 -12.5048 -0.182383 6.32558 6.81179 5.46987 8.14985 5.2766 6.97249 3.96555
37.3469 -53.1203 -55.05 -54.5688 -54.5137 -54.5903 -2.86793 -4.22945 -12.4229 -12.2924
-12.3144 -3.30968 9.45088 3.21804 6.04762 7.11129 2.6767 2.46527 0.205919 -0.75144
-10.7504 -5.09663 -3.98806 -11.116 -4.04016 -11.9748 5.68146 -11.2164 -12.2504 -2.32967
1.27556 6.42988 6.44398 5.87096 8.90354 0.341067 6.72996 -3.05235 -1.02865 4.40379
-0.671954 7.29349 4.90207 -9.85096 9.06931 -0.571891 6.22677 1.10461 1.49116 4.88767
5.24839 4.32449 5.04713 3.22233 7.71293 8.95911 5.52733 6.13477 1.03779 3.50278
11.1221 5.62013 0.912984 -0.485344 3.70585 173.154 176.978 176.12 181.032 169.132
168.103 172.683 179.948 180.941 69.7242 73.9121 55.1037 -56.0769 -41.4646 -38.5881
-36.8302 -30.8994 -43.7621 -51.8489 -51.4961 -55.2206 -46.7666 100.773 154.484 162.121
155.261 147.004 -56.5311 -56.1275 -56.4697 -56.2366 -55.7518 -56.1961 -54.8387 -55.1413
-54.9838 4.08252 -0.217605 171.243 -18.2971 186.019 190.267 189.414 -51.2903 -47.272
182.756 185.888 186.063 -16.4001 -51.0314 85.2824 -54.9228 -55.0558 -55.3202 -55.2833
-49.4162 189.387 -2.30788 189.507 185.527 189.101 7.40635 -64.2388 110.644 109.953
-55.8289 4.63021 -51.6693 -52.9593 -51.7824 -138.155 138.752 -54.7619 159.213 -51.904
-120.617 -120.535 72.3087 7.00914 2.68537 168.091 164.704 -15.3981 139.849 191.111
190.006 185.411 189.458 190.795 189.79 172.799 191.166 186.786 189.96 191.201
0.614073 0.609611 0.634915 0.703978 0.917761 1.62128 2.20642 -3.98715 1.35344 0.0258629
-4.09955 -5.86943 0.409231 0.090294 -0.00155315 0.00546166 0.0105331 0.00586523 0.00115363 -0.00052704
-0.00029091 0.000241611 0.00115742 0.000618803 -54.0486 -52.3212 -133.86 -134.415 -47.8951 -48.3568
-49.028 -47.7368 -48.2407 -48.955 -49.6138 -47.2401 -94.988 -74.617 -48.7428 -47.0815
-74.0552 -48.6669 -51.1494 -51.5062 -50.6188 -99.5419 -111.143 -129.368 -119.689 -119.509

U 3 2021 float
20.0063 -0.0455185 -0.215893 20.0439 -0.0305175 -0.0740413 19.9291 -0.00630408 -0.096493 19.9356 -0.0554587
-0.606565 20.0174 -0.0590318 0.0399844 20.0177 -0.0589273 0.0400179 20.1681 -0.0778187 0.0575572
20.2328 -0.0859548 0.0656011 20.2784 -0.0908701 0.149435 20.2909 -0.115329 0.263928 20.2098
-0.116656 0.20864 19.9546 -0.0470579 0.0198664 19.9967 -0.0543956 0.018374 20.0037 -0.0526772
0.00698179 19.8533 -0.0245379 0.0176645 19.8521 -0.0213197 0.0141279 20.0059 -0.052392 0.00189811
19.8545 -0.0199138 0.00965247 20.0044 -0.0515839 0.000522695 19.8536 -0.0182772 0.00875882 20.0026
-0.0507679 -6.52287e-06 19.8523 -0.0167351 0.00846185 20.0011 -0.0500124 -0.000285528 19.8512 -0.015408
0.00823 19.9996 -0.0493338 -0.000465076 19.8501 -0.0142537 0.00801668 19.998 -0.0486824 -0.000589364
19.849 -0.0132007 0.0078317 19.9963 -0.0480437 -0.000686495 19.8479 -0.0122447 0.00763561 19.9946
-0.0474185 -0.000721737 19.8469 -0.0113685 0.00754859 19.9927 -0.0467724 -0.000812216 19.8459 -0.0104471
0.00727271 19.8454 -0.00996917 0.00697285 19.9924 -0.0465648 -0.000853681 19.9996 -0.000340127 3.12747e-05
20 0 0 20 0 0 19.9996 -0.000340201 7.86437e-05 19.9983
-0.00078539 9.37987e-05 19.9984 -0.00079496 0.000278537 19.9942 -0.00154588 0.00036795 19.9941 -0.00151069
0.000999209 19.9788 -0.00278505 0.000335715 19.9796 -0.0031078 0.00357586 19.9464 -0.00540124 -0.00905613
19.9363 -0.00616114 -0.00796307 19.9389 0.00234996 -0.0143207 19.9277 -0.00535233 -0.0295005 19.9061
0.00534217 -0.0609918 20.2333 -0.0722718 0.00183917 20.0485 -0.0286814 -0.0566676 20.2355 -0.0713476
0.00510703 19.9273 -0.0887655 0.0303645 20.0245 -0.117931 0.0817592 20.2326 -0.0859236 0.0650817
19.8552 -0.0297435 0.0233858 19.3077 0.119511 0.0101476 19.3399 0.116978 0.0112655 19.3679
0.111276 0.0113229 19.389 0.106992 0.0120074 19.4073 0.103213 0.0125126 19.4242 0.0996344
0.0126892 19.4401 0.0962537 0.0126955 19.455 0.0930741 0.012625 19.4693 0.0900429 0.0124862
19.4824 0.0871706 0.0123735 19.4971 0.0843677 0.0120911 19.5058 0.0829298 0.0118302 20
0 0 19.9996 -0.000340782 0.000137262 19.9985 -0.000793382 0.000490086 19.9945 -0.00151663
0.00171825 19.9801 -0.00322996 0.00603025 19.9197 -0.00872173 0.0107293 19.9195 -0.00788324 0.00100033
19.85 -0.0164539 -0.0957344 19.7934 -0.0203868 -0.0681508 19.9553 -0.0505415 -1.02439 20.4349
-0.0668609 -0.935592 20.2161 -0.0527708 -0.509402 19.9304 -0.0554696 -0.636064 20.3097 -0.162656
0.45346 20.3101 -0.163534 0.456922 20.0993 -0.248039 0.581463 19.9891 -0.237222 0.299864