# vtk DataFile Version 2.0
sampleSurface
ASCII
DATASET POLYDATA
POINTS 2021 float
-0.500032 0 0.11501 -0.499951 3.38813e-21 0.0392727 -0.789037 8.47033e-21 0.120673 -0.500013 -1.35525e-20
0.193965 1.00003 0 0.0485099 1.00003 0 0.0478584 0.475202 0 0.0353615
0.250044 1.41878e-20 0.0305359 0.2506 -5.42101e-20 0.117067 0.251301 0 0.203885 0.364989
0 0.203772 1.75002 0 0.113255 1.75002 0 0.0564279 2.50001 6.89146e-18
0.059229 2.21354 0 0.250758 2.50001 0 0.252875 3.25001 -3.47927e-17 0.0598775
3.25001 -1.69407e-21 0.253888 4.00001 5.60566e-18 0.0599857 4 0 0.253986 4.75
-1.79088e-17 0.0599988 4.75 8.47033e-22 0.253998 5.5 -2.79246e-17 0.0599999 5.5 -4.23516e-22
0.253999 6.25 1.01187e-17 0.06 6.25 0 0.254 7 2.93732e-17 0.06
7 0 0.254 7.75 -2.65294e-17 0.06 7.75 0 0.254 8.5
1.8923e-17 0.06 8.5 0 0.254 9.25 -2.88552e-17 0.06 9.25 -5.29396e-23
0.254 10 -2.64698e-23 0.254 10 0 0.06 -4.24997 0 0.0599042
-5 0 0.0599861 -5 0 0.253986 -4.24997 0 0.253912 -3.49995
0 0.0593815 -3.49994 0 0.253441 -2.74993 0 0.0570188 -2.74991 0
0.251316 -1.99991 0 0.0492276 -1.99987 0 0.242776 -1.24992 -1.69407e-21 0.03
-1.24985 1.23328e-17 0.222327 -1.24989 3.38813e-21 0.125756 -0.874924 2.08116e-17 0.03 -0.874929
0 0.122356 -0.124951 -8.47033e-22 0.03 -0.499941 0 0.03 -0.124922 -8.47033e-22
0.0385291 1.00021 0 0.231242 0.625368 0 0.203537 0.25004 -2.11758e-22 0.03
1.75003 0 0.247334 1.92873 1.69407e-21 0.441438 2.50001 0 0.447397 3.25
-1.69407e-21 0.447898 4 0 0.447986 4.75 0 0.447997 5.5 -4.23516e-22
0.447999 6.25 4.23516e-22 0.447999 7 0 0.448 7.75 -1.05879e-22 0.448
8.5 0 0.448 9.25 0 0.448 10 -2.64698e-23 0.448 -5
-8.47033e-22 0.447985 -4.24997 0 0.447919 -3.49993 0 0.4475 -2.74988 0
0.445609 -1.9998 6.77626e-21 0.437758 -1.24969 1.61411e-17 0.417681 -1.24976 -6.77626e-21 0.31973
-0.875161 7.70461e-18 0.216228 -0.875403 0 0.312476 -0.499924 -8.74138e-19 0.250039 -0.312433
0 0.250037 -0.312436 0 0.200025 -0.499924 0 0.200026 0.250062 3.38813e-21
0.24921 0.250039 -1.69407e-21 0.250046 0.250032 0 0.300069 0.437526 3.05948e-18 0.300066
0.625026 0 0.30005 1.00072 -8.23994e-18 0.326497 1.00196 0 0.423 1.75013
0 0.439575 1.75013 1.77877e-20 0.448245 1.00135 0 0.537141 1.00002 0
0.61834 1.74999 2.71051e-20 0.633055 2.49999 -3.38813e-21 0.641448 3.25 0 0.641907
4 -1.69407e-21 0.641985 4.75 -8.47033e-22 0.641996 5.5 -4.23516e-22 0.641998 6.25
0 0.641999 7 0 0.641999 7.75 0 0.642 8.5 5.29396e-23
0.642 9.25 -5.29396e-23 0.642 10 0 0.642 -5 0 0.641985
-4.24997 -1.69407e-21 0.641926 -3.49993 0 0.641557 -2.74988 0 0.639897 -1.99989
6.77626e-21 0.63382 -1.25099 2.55465e-18 0.614606 -1.25 -2.71051e-20 0.515981 -0.878244 0
0.50789 -0.875961 2.71051e-20 0.459694 -0.875609 0 0.410432 -0.498432 0 0.400603
-0.498071 -1.70762e-18 0.413126 -0.450805 0 0.413349 -0.45095 0 0.400955 0.250009
1.89735e-19 0.412703 0.25 2.71051e-20 0.425212 0.296872 1.00289e-18 0.425187 0.343754 -2.71051e-20
0.425153 0.343763 0 0.400146 0.250006 0 0.400175 1.00162 1.41488e-17 0.520353
-2 4.23516e-22 0.820145 -2.09502 -2.11758e-22 0.830091 -2 0 0.829497 -1.25123
0 0.813251 -1.25126 0 0.713737 -1.25101 6.77626e-21 0.62198 1.00059 0
0.714169 1.00094 0 0.809205 1.75018 0 0.82775 2.5 0 0.835521
3.25 0 0.835917 4 -1.69407e-21 0.835986 4.75 -8.47033e-22 0.835996 5.5
0 0.835998 6.25 0 0.835999 7 0 0.835999 7.75 0
0.836 8.5 0 0.836 9.25 0 0.836 10 0 0.836
-5 -8.47033e-22 0.835986 -4.24997 0 0.835935 -3.49995 0 0.835616 -2.74991
0 0.83419 -0.970118 0 0.703382 -0.87455 0 0.699864 -0.874264 -2.71051e-20
0.649852 -0.874033 -2.71051e-20 0.599873 -0.49698 0 0.599585 -0.497345 -9.21572e-19 0.612046
-0.450014 0 0.611892 -0.44938 2.71051e-20 0.599454 -2.00002 0 0.84097 -1.84639
-3.38813e-21 1.02215 -1.25185 0 1.01276 -0.896512 -3.38813e-21 0.900668 -0.908183 6.77626e-21
0.801076 -0.904022 -1.86347e-20 1.00093 0.624925 0 0.799916 0.249931 0 0.799891
0.249978 0 0.899916 0.249997 0 0.999939 0.999987 0 0.999957 1.75061
-2.1684e-19 1.02409 2.50003 0 1.0296 3.25 -1.69407e-21 1.02993 4 0
1.02999 4.75 0 1.03 5.5 0 1.03 6.25 2.11758e-22 1.03
7 0 1.03 7.75 0 1.03 8.5 5.29396e-23 1.03 9.25
0 1.03 10 0 1.03 -5 0 1.02999 -4.24998 0
1.02994 -3.49996 -8.47033e-22 1.02968 -2.74996 0 1.02849 -2.00026 0 1.02458
-0.87482 0 0.799893 -0.87491 0 0.899919 -0.49993 0 0.799862 -0.499958
7.6233e-19 0.849889 -0.312476 0 0.849885 -0.312472 0 0.799853 -1.25001 8.04681e-21
1.19601 -0.499979 5.29396e-23 1.10737 -0.731886 2.11758e-22 1.19997 -0.499981 0 1.19997
-0.124987 0 0.999933 -0.477759 -5.29396e-23 0.999933 -0.487556 -1.45584e-22 1.09995 0.250008
0 1.19997 1 0 1.19997 1.7507 0 1.22203 2.50003 -1.35525e-20
1.22368 3.25 0 1.22394 4 0 1.22399 4.75 4.23516e-22 1.224
5.5 0 1.224 6.25 2.11758e-22 1.224 7 0 1.224 7.75
1.05879e-22 1.224 8.5 0 1.224 9.25 0 1.224 10 2.64698e-23
1.224 -5 4.23516e-22 1.22399 -4.24999 -4.23516e-22 1.22395 -3.49998 0 1.22374
-2.75001 0 1.22279 -2.00077 0 1.21965 -1.24997 4.23516e-22 1.19997 -0.499969
-5.29396e-23 0.999933 -0.874942 0 0.999936 -0.499979 -1.32349e-23 1.09995 -2.75001 0
1.36967 -3.18711 4.23516e-22 1.41751 -2.75001 4.23516e-22 1.4171 -2.00072 3.38813e-21 1.29692
-2.00065 0 1.41474 -1.25823 6.35275e-21 1.40014 -0.980416 0 1.39998 -0.499986
0 1.39998 0.250009 0 1.39998 1 0 1.39998 1.75054 0
1.41682 2.50002 -1.35525e-20 1.41776 3.25 0 1.41796 4 4.23516e-22 1.41799
4.75 0 1.418 5.5 0 1.418 6.25 0 1.418 7
0 1.418 7.75 0 1.418 8.5 0 1.418 9.25 0
1.418 10 0 1.418 -5 0 1.41799 -4.24999 0 1.41797
-3.49999 -4.23516e-22 1.41781 -1.24998 0 1.39998 -2.80392 1.32349e-23 1.61143 -2.75
-1.32349e-23 1.6114 -2.0003 0 1.60983 -1.25396 2.64698e-23 1.60004 -1.12789 2.64698e-23
1.59999 -0.49999 1.05879e-22 1.59999 0.250008 0 1.59999 1.00001 4.23516e-22 1.59999
1.75038 0 1.61122 2.50002 0 1.61184 3.25 -4.23516e-22 1.61197 4
-4.23516e-22 1.61199 4.75 0 1.612 5.5 0 1.612 6.25 0
1.612 7 0 1.612 7.75 5.29396e-23 1.612 8.5 2.64698e-23 1.612
9.25 -1.32349e-23 1.612 10 -1.32349e-23 1.612 -5 0 1.61199 -4.24999
0 1.61198 -3.49999 0 1.61187 -1.24999 0 1.59999 -2.75 -1.32349e-23
1.63714 -2.64195 -2.11758e-22 1.80559 -2.00012 -8.47033e-22 1.80492 -1.25741 0 1.80004
-1.19082 -7.94093e-23 1.8 -0.499992 1.05879e-22 1.79999 0.250006 2.11758e-22 1.79999 1
0 1.8 1.75023 0 1.80561 2.50001 3.38813e-21 1.80592 3.25 0
1.80599 4 0 1.806 4.75 2.11758e-22 1.806 5.5 0 1.806
6.25 0 1.806 7 0 1.806 7.75 0 1.806 8.5
2.64698e-23 1.806 9.25 0 1.806 10 0 1.806 -5 0
1.806 -4.25 -2.11758e-22 1.80599 -3.49999 0 1.80594 -2.75 -1.05879e-22 1.8057
-1.24999 0 1.8 -2 -4.76456e-22 1.98532 -1.20969 -1.65436e-23 2 -0.499993
0 2 0.250006 0 2 1 0 2 1.75 0
2 2.5 0 2 3.25 0 2 4 0 2
4.75 -1.05879e-22 2 5.5 0 2 6.25 0 2 7
5.29396e-23 2 7.75 0 2 8.5 0 2 9.25 0
2 10 -1.32349e-23 2 -5 2.21817e-18 2 -4.25 1.05879e-22 2
-3.49999 0 2 -2.74999 0 2 -1.99999 -5.29396e-23 2 -1.24999
3.30872e-24 2 0.0956945 -5.42101e-20 0.203879 0.0632748 0 0.203876 0.0625511 0
0.250042 -0.403589 6.77626e-21 0.40138 -0.405779 7.7927e-19 0.38799 -0.406379 -6.77626e-21 0.375196
-0.499567 -1.35525e-20 0.375265 0.250006 -6.50521e-19 0.375144 0.156247 0 0.375155 0.156237
9.41901e-19 0.400212 0.203129 0 0.400201 0.249796 0 0.59991 0.249852 -1.0842e-19
0.587433 0.202953 0 0.587417 0.202888 6.50521e-19 0.599901 0.625121 -6.77626e-21 0.499953
0.717439 6.77626e-21 0.504955 0.625095 6.77626e-21 0.475379 0.343596 1.0842e-19 0.599918 0.343639
0 0.574939 0.296781 0 0.574964 0.249926 0 0.574977 0.62499 -4.2826e-18
0.549927 0.624917 4.55365e-18 0.599925 0.203133 0 0.412725 -0.449046 0 0.587135
-0.496581 5.42101e-20 0.587161 0.625036 -9.32414e-18 0.40006 0.625067 1.13164e-18 0.450032 0.249704
0 0.624881 0.155871 0 0.599866 0.155839 1.95156e-18 0.624853 0.249886 1.35525e-20
0.749873 0.062411 0 0.749846 0.0624478 -4.26227e-18 0.799869 -0.312472 0 0.749804
-0.499901 -3.38813e-21 0.749824 -0.691227 0 0.30453 -0.499912 3.02221e-18 0.300065 -0.875784
-3.11708e-18 0.361353 -0.592465 -2.71051e-20 0.40036 -0.499854 0 0.350135 -0.687111 1.35525e-20
0.350117 -0.68656 -2.71051e-20 0.40021 0.437526 -1.35525e-20 0.400108 0.437522 6.77626e-21 0.350086
0.250015 -2.51399e-18 0.35011 0.625027 3.38813e-21 0.350064 -0.592287 0 0.425286 -0.498048
0 0.425444 -0.873902 5.42101e-18 0.54992 -0.496663 0 0.574746 -0.591532 0
0.574798 -0.591729 0 0.599734 -0.149108 0 0.406489 -0.149477 -5.29396e-23 0.403592
-0.149678 0 0.406489 -0.451876 -2.1684e-18 0.499977 -0.451579 0 0.487563 -0.498366
0 0.487552 -0.498515 -1.0842e-19 0.499993 0.437553 0 0.450075 0.437532 -6.07153e-18
0.425113 0.254621 -1.25361e-19 0.496697 0.26485 -5.42101e-20 0.498023 0.264831 0 0.496529
0.254636 -2.30393e-19 0.49668 0.570241 0 0.499932 0.437665 -2.71051e-20 0.474991 0.437859
-2.71051e-20 0.49988 0.437372 -1.0842e-19 0.599915 0.249722 3.25261e-19 0.649874 0.43732 -5.42101e-20
0.649899 0.624872 0 0.649914 0.624883 -3.95734e-18 0.699913 0.43734 6.83047e-18 0.699894
0.249817 0 0.699869 -0.592227 0 0.624743 -0.498071 -2.71051e-20 0.624658 -0.499769
6.77626e-21 0.69979 -0.687025 0 0.699824 -0.150854 -1.03677e-18 0.599678 -0.151059 -6.77626e-21
0.605522 -0.127339 6.77626e-21 0.605681 -0.127867 0 0.599582 -0.406139 -4.40457e-20 0.699754
-0.406113 0 0.674749 -0.499634 0 0.674774 -0.18433 -4.23516e-22 0.674527 -0.163626
-4.23516e-22 0.678958 -0.165125 0 0.674537 -0.171868 4.23516e-22 0.674524 -0.14924 3.34737e-19
0.400169 -0.125737 0 0.400165 -0.12551 0 0.393854 -0.149076 -2.11758e-22 0.393877
-0.499925 -2.61564e-18 0.325088 -0.406241 0 0.325087 -0.4062 0 0.300069 -0.124901
0 0.300062 -0.218633 -3.27294e-18 0.299673 -0.218596 1.35525e-20 0.324664 -0.124851 0
0.325085 -0.126061 7.86047e-19 0.406473 -0.0785222 1.30782e-18 0.400166 -0.126118 3.38813e-21 0.41275
-0.0785648 0 0.412729 0.240678 1.0842e-18 0.500153 0.252614 -2.1684e-19 0.498317 0.252386
1.0842e-19 0.496231 0.241035 0 0.496114 0.228892 -1.35525e-20 0.496204 0.228835 6.77626e-21
0.498715 0.229819 2.71051e-20 0.500074 0.25248 0 0.499935 0.240657 -1.6263e-19 0.500957
0.264863 0 0.500154 0.264689 0 0.500951 0.437443 0 0.549896 0.437406
[...]
POINT_DATA 2021
FIELD attributes 2
p 1 2021 float
2.00918 1.43785 2.37015 4.3616 0.0592654 0.0571527 -4.20403 -6.04239 -7.69091 -6.16349 -4.31951
0.496036 0.463911 0.111523 0.326364 0.174659 0.00320896 0.0270327 0.0053297 0.0142633 0.00946944
0.0154575 0.00474607 0.0098716 0.0001721 0.00453017 -0.00134807 0.00237601 -0.0010076 0.00219871 -0.000414458
0.00219717 0.000590891 0.00337431 0 0 0.614685 0.610233 0.610081 0.614399 0.635557
0.63466 0.705493 0.702361 0.927477 0.924189 1.64145 1.76298 1.77833 2.2366 2.47725
-4.05665 1.36784 -4.10948 0.650929 -0.109992 -6.03217 0.571807 0.441727 0.189308 0.0289769
0.00708639 0.00927001 0.0054929 0.00102891 -0.000558841 -0.000204567 -0.000342177 0.00269834 0 0.609648
0.613629 0.632245 0.693325 0.903078 1.9569 2.02961 3.12868 3.87296 7.32126 -3.3041
-1.05356 4.58155 -5.72549 -5.71758 -2.25677 0.340333 0.827297 1.03004 0.925155 0.520632
0.516431 0.847511 0.880611 0.426737 0.166817 0.0227515 0.00208886 0.00632631 0.00424069 0.000405661
-0.00091931 -0.000367807 -0.000221003 0.0028822 0 0.608957 0.612438 0.628608 0.680636 0.862634
1.85076 2.13658 5.13477 5.58882 4.82625 32.5706 36.4559 52.0233 45.9783 4.76072
4.90306 3.38367 3.41879 2.68328 4.09359 0.840666 0.808589 0.788122 0.805876 1.39714
1.78613 1.84598 0.991775 0.482118 0.34939 0.127444 0.0134456 0.000376041 0.00686714 0.0061074
0.0025923 0.00120784 0.00153137 0.00210481 0.00351622 0 0.60808 0.610956 0.624174 0.665757
3.25235 3.75077 4.68284 4.76086 34.3583 32.697 44.6207 50.7617 0.802044 0.781759
0.940252 1.70278 2.62738 1.14243 0.0801131 -4.87796 -5.30003 -2.74805 -0.22834 0.190917
0.0731128 -0.00564177 -0.0110052 -0.00102696 0.000836746 -0.00119595 -0.00170499 -0.000798475 0.000322154 0.00128648
0 0.60711 0.609333 0.619345 0.649777 0.740718 2.74693 1.73253 5.18815 3.29249
0.556879 -0.676893 0.698319 0.311341 0.313203 0.143159 -1.70933 0.673534 0.281827 -0.974105
-0.393746 0.0978164 0.0645978 -0.00308462 -0.0110194 -0.00112775 0.00141845 -0.000364784 -0.000863697 1.39137e-05
0.00107966 0.00157798 0 0.606144 0.607722 0.614498 0.633651 0.677243 0.693083 0.823561
1.15932 0.324821 0.622424 0.613714 0.618799 0.656988 0.626097 0.567091 0.384366 0.0598744
-0.564302 -0.377617 0.0460872 0.0591228 -0.00449861 -0.0152397 -0.00444996 -0.000789911 -0.00208583 -0.00233943
-0.00129367 -0.000110367 0.00046017 0 0.60528 0.606265 0.610075 0.566436 0.607027 0.607065
0.59102 0.495953 0.427412 0.0775487 -0.435286 -0.348786 -0.00108007 0.047902 -0.00804314 -0.0188778
-0.00652567 -0.00177864 -0.0026791 -0.00275092 -0.00160602 -0.000358532 0.000281537 0 0.604601 0.605092
0.606531 0.495447 0.606086 0.595503 0.570703 0.458307 0.427969 0.0868958 -0.365033 -0.332877
-0.0275848 0.0428253 -0.00843674 -0.0199553 -0.00727411 -0.00219203 -0.0029973 -0.00300568 -0.00181433 -0.000541412
0.000144206 0 0.604162 0.60431 0.604189 0.599677 0.457183 0.564434 0.425818 0.089996
-0.342663 -0.327735 -0.0358742 0.0412982 -0.00853055 -0.0203715 -0.00763177 -0.00242031 -0.00315613 -0.00310273
-0.00186917 -0.000576961 0.00012989 8.16791e-05 0.604008 0.604028 0.603346 0.597158 0.563924 0.444889
-10.2831 -11.1408 -11.7883 70.4642 60.0411 43.8569 29.6669 2.94205 1.72105 4.42791
5.07528 4.13926 4.55312 6.1907 5.40742 2.02118 1.73158 2.13644 2.95529 3.66412
3.35919 3.96652 2.24023 1.90726 6.05308 56.2503 39.4454 1.93082 2.25499 3.64446
4.75379 2.1736 -4.52406 -11.2 -9.84102 -3.19355 8.46346 7.00441 11.9007 4.7496
17.4639 20.8149 9.13701 10.5171 2.575 1.49829 1.00569 1.65386 19.7307 36.914
5.61286 39.6454 20.3299 18.8202 -58.8315 -58.6139 -58.8291 68.4641 68.3768 47.5633
44.7978 3.39563 3.09847 -5.05728 0.317625 0.166836 -5.1071 2.58284 3.96859 3.93397
2.85077 1.83482 1.75227 1.62017 0.946055 0.756364 -1.35727 17.006 28.1058 13.2955
7.27717 -56.5283 -56.3183 -58.766 -58.6923 13.8742 19.1105 18.4842 -46.2913 -42.7306
-44.4086 -45.1455 -58.3597 -57.5912 -57.5826 -57.7652 16.6072 15.8748 11.9977 -29.3691
-27.9835 -45.3823 -37.0697 -58.9277 -45.9895 -58.7444 -48.1031 11.024 4.28959 10.5301
11.8819 9.12074 9.39812 9.6874 4.51215 11.1462 0.878237 0.709403 3.71204 3.46455
4.05749 4.31319 47.7564 68.3466 -58.8203 -56.4542 6.50634 11.1512 -51.4173 -52.7253
-58.42 4.45937 6.29762 6.45686 6.4854 -31.4266 -40.0269 -49.4579 -29.8034 64.4085
60.7923 41.6565 41.4064 -44.0361 -56.0759 -11.5177 -8.56672 -0.427461 -24.5141 -42.4521
42.9849 44.3114 64.3088 66.4803 -51.7586 -49.9197 -50.6995 0.33025 -9.6573 -12.6978
-11.6816 -21.6624 -24.8511 -57.8254 44.0418 21.8534 22.1473 11.7027 12.0193 12.193
13.144 22.0243 44.5066 10.798 12.461 11.9015 13.2414 -58.7156 -58.7031 -58.1573
-58.1445 -57.5417 -56.9217 -56.5568 45.8207 66.8317 -58.3732 -58.6087 -59.0146 -58.281
-29.7763 -34.9887 -32.6945 -13.6793 -1.55454 -4.8705 -50.5647 -50.2139 -58.0377 -13.0805
0.166676 0.0889302 -13.3088 -58.3182 -56.8179 -51.2713 -12.4296 -10.1666 -3.66751 1.58831
-7.35259 -5.57861 -18.6193 -38.3634 -41.45 -36.3384 -52.2425 -53.2516 -52.9943 -4.09475
-17.5197 -18.2671 -4.71 -56.089 -51.9927 -56.1167 -3.53176 -9.25123 -16.5617 -11.5917
67.5329 46.8705 -54.2161 -54.3761 -56.7946 -56.686 -56.2017 -53.7029 -57.0869 -53.1834
-55.9735 -59.0015 -59.1399 -59.1809 -32.1579 -77.1111 -96.1479 -101.109 -103.383 -102.946
-48.6621 -50.2026 -54.2469 -48.2461 -50.0161 -98.205 -99.4789 -71.3117 -34.3582 -58.4867
-59.313 -59.0183 -56.3006 -57.1885 -57.2835 -57.2062 -57.6091 7.13999 6.06787 8.9543
-56.0454 -55.7453 -55.9625 -55.4451 -55.5653 -55.8571 -56.2684 -55.1318 -55.116 2.01601
1.81103 0.689974 1.19193 4.22288 4.59583 1.36175 -55.8646 -56.3315 -56.9789 5.79292
6.62955 2.77657 0.864437 3.12954 -32.0328 -38.0497 -37.3057 -31.6416 -54.5343 -55.0242
-57.9389 -57.6308 -54.9663 -55.8073 -38.9603 -43.3172 -43.1185 -36.9685 -46.0777 -50.1194
-53.246 -53.3959 -52.2368 123.581 131.439 146.784 146.873 -58.1513 -56.2651 -56.5343
-57.8562 -57.7142 4.47584 2.20413 3.09661 4.68396 -9.73047 -3.91179 -5.86494 -8.9003
-11.7845 -39.1037 -36.8997 -25.5994 -27.3314 -32.1471 -39.1238 -24.8214 -24.8481 31.0957
41.2732 52.1164 37.9268 23.0723 19.2361 34.2315 26.1293 0.669591 0.827784 1.98729
34.0495 24.8855 17.0524 22.1044 2.86765 3.80675 4.45703 4.5689 3.71589 6.67033
6.77943 4.6206 -9.36301 -8.25038 -1.37948 -10.2405 14.6871 9.1474 10.8227 -54.6351
-56.8679 -56.9984 -54.8293 -82.6931 -81.4104 -84.655 -47.9209 -12.7004 -18.3416 -27.6157
-56.0216 -52.8296 -55.3906 -56.4917 -74.1088 -73.8548 -58.5127 -59.7457 -49.5108 -47.9653
-50.2122 -50.4081 3.7415 3.80359 -0.636408 5.99944 5.65019 4.65575 5.33001 5.73745
6.14463 -54.0987 -53.6505 -68.7842 -67.9946 78.9905 94.0808 85.6751 112.099 106.405
88.8309 90.1489 161.848 164.177 153.354 121.625 98.4061 104.347 97.3004 117.636
-12.8622 -26.9167 -31.2322 -5.82452 -26.1037 -52.0749 -41.6931 -6.30148 93.7166 101.216
86.8008 78.2685 96.6973 88.3929 107.602 148.46 158.214 167.404 165.142 106.624
102.9 159.63 -32.6094 -7.97135 -38.2981 -28.4998 -47.6866 140.208 140.077 115.601
110.581 110.242 115.506 139.601 138.984 108.131 167.23 170.835 172.007 172.297
173.71 186.648 186.836 174.816 173.268 -32.9308 -40.0615 -32.8871 -56.4442 -50.8001
-42.6312 -41.8805 -40.6151 -25.52 2.80149 -2.56039 -0.611029 173.388 175.333 187.189
172.36 186.505 187.149 175.22 172.168 179.596 181.76 170.109 168.877 179.894
167.877 171.094 182.418 -52.6424 -37.8555 -36.6056 -55.7399 -55.785 -55.8916 -36.3969
-46.2544 -36.4921 -36.9573 -45.8576 -45.8256 -3.36318 -9.22788 -25.1258 -25.1627 -32.8659
-43.5104 -32.8942 -32.5902 -42.9359 -21.1552 -18.8705 -20.601 115.418 140.137 138.122
139.032 114.675 109.303 170.034 169.908 170.476 167.739 136.395 108.393 113.571
137.146 -57.1452 -54.2058 -52.8564 -52.6814 -55.7114 -46.157 90.0972 93.3488 78.5711
-14.977 -6.25454 -6.78944 -20.904 54.5113 56.3722 69.9776 73.6357 -55.9708 -55.1996
-55.497 -55.9608 -57.1291 -57.365 -57.5079 -57.6173 -56.1914 -56.2914 -55.8782 -55.9814
-134.993 -109.41 -77.8524 -95.6965 -98.0597 -99.1797 -99.1715 -83.2814 -79.0243 -92.619
-70.7725 -85.8678 -133.425 -136.891 -128.726 -96.2517 -97.0751 -54.845 -54.2977 -54.9947
-56.1013 -56.3879 -53.9288 -53.849 6.81534 7.34322 13.751 16.3792 13.8441 -50.928
-50.2041 -45.7232 -45.9531 -46.141 -45.9386 -45.9116 -45.6934 12.9511 12.6857 16.9002
8.27115 8.07659 9.64008 10.1229 10.1485 8.50947 7.32712 8.08965 12.416 15.7456
13.7496 0.805076 -0.828659 -3.01898 7.03907 6.21734 5.09615 6.43757 7.14727 -52.4956
-53.3812 -56.3533 -55.6685 -48.6526 -49.632 13.6393 15.6063 17.0084 -46.8045 -49.7148
-49.8487 -46.5205 -45.6751 11.3618 11.1031 11.1459 9.55701 6.84879 -7.05207 -5.80809
5.47713 6.29886 6.26745 -48.5287 -48.8692 146.471 148.494 140.905 136.949 113.307
118.28 125.692 121.156 184.607 185.883 182.183 178.425 -55.768 -55.7029 -53.092
-53.0002 169.637 183.358 185.057 172.994 174.45 186.571 171.029 182.143 169.624
179.278 -16.8892 -19.1788 -23.9385 -28.2253 -26.8161 -22.9319 -8.69793 -3.37536 -3.81003
-8.99686 -14.0193 -13.6584 -1.03786 -9.06763 -9.93716 -15.0268 -18.1543 -8.23243 -8.98425
-24.9646 -20.24 -9.66014 -0.782988 -3.05327 6.08158 -3.44802 6.06436 6.82364 3.35695
3.89255 4.6169 4.17672 7.72374 6.09949 3.93491 5.79359 -18.9157 -16.0027 -26.3361
-21.4726 -56.5213 -58.2462 -58.8389 -58.7003 3.00485 3.07528 5.03307 5.52016 4.2701
4.87143 -14.5778 -40.3162 -57.2542 -65.4636 -53.2699 -31.9223 -59.0108 10.7334 10.1878
10.2109 -2.49294 0.1734 11.9952 17.2718 9.51319 23.764 20.655 10.4454 1.64927
6.81676 8.31518 13.1329 11.5669 6.78308 -53.4725 -44.0333 -49.9139 -13.0971 -43.9403
-24.9982 -60.6641 -83.7809 108.636 92.6623 106.167 108.317 112.713 111.836 172.883
172.007 173.258 172.574 171.276 185.964 185.965 185.2 -58.0297 -58.2492 174.484
-56.2651 -56.2636 -57.2083 -57.3749 -57.0797 -55.8961 -150.633 -137.463 -137.337 -134.166
-158.321 -137.232 -132.875 -133.192 -119.847 -115.222 -80.5675 -73.1822 -73.5435 -70.9177
-119.532 -121.293 -56.8508 -55.8422 -54.7361 -57.2256 9.52048 7.16312 10.6921 8.23559
11.016 12.0427 12.4184 13.377 14.1709 -55.2719 -54.3443 -56.3358 -55.1397 -53.1805
-52.9144 -53.0306 -54.9673 -6.0053 -0.489926 -1.43362 -4.6249 9.17936 9.55642 6.79848
5.83234 7.55433 9.5427 8.77747 6.69667 1.33516 8.17069 7.07194 6.91017 8.67845
10.4076 9.22145 12.0588 11.3402 -54.7206 -55.1475 -55.1893 -55.3149 -55.4666 -55.3202
-54.8213 -52.812 -54.1258 -54.1344 -54.1524 -51.1115 -52.507 -73.8388 -73.0587 -57.6704
-59.968 -77.6482 -68.48 -77.617 -124.1 -128.701 -136.326 -79.589 -97.6465 -107.508
-80.4512 -98.9949 128.735 113.567 148.506 151.732 -54.6682 -53.887 -55.0064 -54.9959
-53.1993 143.889 167.875 146.148 -49.0254 -48.1892 -48.6275 -49.4013 -49.2101 -49.2278
-49.1549 -47.6664 -8.06525 -9.35535 -11.8997 -11.0079 -14.8495 -17.0375 -19.1872 -16.9648
-17.8969 74.8094 85.5049 -58.589 51.2182 76.5266 64.9982 75.4879 60.9514 13.6488
10.6359 45.4668 36.478 8.34716 9.18338 3.62561 5.29299 5.10103 7.79554 6.70926
7.07808 7.46259 8.27099 -52.7927 -52.3489 -52.0708 -52.6587 -1.04361 -0.528849 -1.10573
2.25956 5.70024 5.141 7.09734 6.52779 -50.9872 -51.3986 -51.1261 138.186 136.262
171.188 184.78 189.085 189.372 186.863 185.339 -55.8317 -55.5351 -55.8559 -55.6779
-53.2313 -45.6202 -46.446 -47.0726 -46.2807 -46.6128 -47.9037 -56.1658 -56.1901 -56.7803
-57.3521 -57.0567 -57.041 -57.2013 -56.8146 -55.1525 -115.876 -111.5 -135.575 -112.235
-134.407 -122.518 -124.006 -133.86 -56.2657 -57.5091 -55.936 -54.6314 13.7111 12.3418
11.3248 12.5003 12.7229 13.3657 -36.7563 -36.2493 -31.4551 -30.9043 -41.7399 -42.2789
-46.4557 -46.0622 -51.1172 -51.166 -45.5424 -52.1901 -51.8304 -6.21186 -0.957978 -11.4913
0.629327 2.0722 8.00589 7.5377 7.86552 4.26948 10.6874 7.34214 8.76041 10.2453
10.8902 10.7857 10.9263 12.6951 12.3643 2.34747 12.4342 14.8318 16.0065 3.88854
3.39692 3.13575 3.81633 -58.9882 -58.1324 -52.9654 -56.5597 -44.7301 -44.193 -40.1549
-44.5198 -45.9374 -49.9821 -51.1934 -49.6241 -49.851 -49.6057 -47.094 -52.2132 -47.2398
4.19874 -48.3189 -49.614 140.981 131.784 129.388 129.425 129.805 114.312 106.881
188.662 188.136 187.14 -50.7665 -51.0934 -1.31153 -0.744773 0.288825 -29.6062 -30.516
186.058 186.893 180.37 183.329 181.876 181.505 -33.2438 -29.0767 -3.07253 -7.71837
-5.83805 -3.11636 -24.7216 -13.5764 -10.1608 -13.3558 -19.7947 -4.58286 80.8566 56.5119
60.8472 21.0678 21.4345 68.0125 110.703 10.1423 7.18275 -2.29212 -2.54695 6.83914
7.6363 7.92641 6.10823 6.56514 24.5322 16.2921 -0.42795 19.7519 -1.78057 3.47485
8.17234 8.09498 68.0182 110.206 -54.7266 -55.8213 18.1108 91.4124 108.951 100.382
92.4257 108.046 109.162 126.576 134.315 143.191 -55.8888 81.4144 73.3704 50.1667
12.535 18.5921 16.7637 -75.5345 -56.9339 -56.9274 -56.9307 -55.349 -55.2791 -60.0104
-55.517 -59.9448 -60.551 23.4469 -6.55025 5.97524 10.5947 10.8287 -1.43655 -1.54298
-2.66466 -55.594 -54.1342 -1.02962 2.5249 2.83509 -57.5569 -56.9916 -56.1417 7.96366
7.65476 4.11644 -56.6427 41.6459 49.4302 -67.1539 -59.3642 17.1653 14.7068 8.98762
6.89983 5.0612 8.51252 6.95423 -54.1537 -54.1148 -52.9446 -52.8713 -55.7997 -52.2194
-51.7454 -54.5451 -54.8525 -54.8419 -54.3324 -55.4189 -54.9847 -54.8542 -54.5931 4.48521
-51.7361 -57.8153 -56.7798 100.507 129.134 144.708 155.168 168.09 162.919 160.73
148.734 188.244 -52.8712 -53.8031 -51.9364 -7.36028 -10.3947 -3.21354 -49.7156 -49.7431
-49.7099 -49.982 -53.164 -47.2641 -48.7921 -47.567 -47.0819 -47.7826 28.8278 20.2565
-112.34 -119.945 -119.802 -120.44 -120.785 -74.0526 -96.6659 -74.0563 13.3967 17.0404
-10.9739 12.0772 11.5209 -5.48649 -7.06352 4.11172 2.49554 0.989189 0.63809 -0.634923
-2.24968 -0.99516 4.14631 4.52022 0.592254 2.83565 4.49302 2.4076 1.32328 13.325
17.6431 -50.0918 5.50224 12.7791 8.50967 16.5098 8.47963 11.1912 14.2195 15.9976
4.79447 4.99807 6.48971 5.90825 -2.11325 -4.04347 -6.30818 -6.20915 4.87661 1.64648
4.36655 9.44726 15.3604 16.5628 8.23565 5.6653 3.03102 2.71782 7.18515 10.6723
11.3298 11.9744 11.1118 5.70461 -3.58464 5.57888 -2.82371 3.19388 -3.59386 2.43655
11.0297 8.34922 12.4126 6.99646 9.50215 11.4289 10.8182 10.5171 7.965 8.65415
9.17735 9.42656 7.92352 7.38497 7.40405 6.03472 -5.50079 -9.01936 -7.23273 6.50694
5.91466 8.00003 6.26739 -9.24821 -11.0175 1.07272 7.07403 5.8911 -1.69673 5.6759
-137.611 -138.118 -138.284 10.287 -55.6034 -54.5499 -54.602 5.23911 9.92642 5.30088
8.38392 11.0056 -55.7594 -55.7221 -55.088 -54.7768 -61 -60.5032 -60.9931 -69.0433
-116.095 -119.935 -113.777 -120.656 -48.9749 -49.5007 -47.4716 -47.1734 -47.436 -47.149
-14.656 -14.6552 -17.0772 -52.6 -52.416 -52.1761 5.13852 1.50473 4.98775 4.95902
-51.9769 -52.4074 -52.5301 141.737 151.095 -55.3318 -50.7557 13.3672 13.9476 11.6082
7.19551 11.4751 18.7698 4.21226 3.32904 4.67549 3.67133 -53.277 -57.3278 -57.1195
-55.3927 7.76659 15.1063 11.1409 4.09689 4.24714 10.1076 8.86139 9.55194 8.65621
10.4401 12.4557 10.3067 5.83122 8.58876 8.23854 -54.1308 -50.1602 -48.5394 91.2227
80.2517 84.2176 66.7421 72.7275 -4.80111 -2.91611 0.332026 -1.44394 7.6433 8.1556
7.69387 8.28577 8.04261 7.53741 7.08437 116.829 106.793 94.7519 -73.9809 -57.404
-56.1279 -54.9582 -54.8118 -54.423 -54.4098 163.482 139.764 161.891 162.001 7.69626
4.57738 10.6806 11.3846 7.2134 8.55799 7.44048 6.91615 6.16483 2.74141 -2.41182
4.75915 5.40129 5.98613 4.3717 6.67901 14.4971 9.07993 -12.8843 15.648 14.3107
7.64308 10.7585 16.0255 9.15848 -12.7252 -13.6497 -11.7202 -2.87091 -4.91703 -13.2286
7.24322 5.29146 -14.7702 -16.3895 7.19693 4.86299 -1.03221 -3.93397 -55.0136 -45.945
13.1326 1.93611 0.257532 -0.140282 5.99149 5.54695 6.47869 6.07015 6.02685 5.61404
0.32605 6.29081 6.92779 -0.415392 5.74625 4.76759 7.21702 6.7058 6.13194 106.195
86.661 122.015 123.799 5.21358 4.93961 3.47291 -55.2272 5.14307 6.13653 5.91323
-9.56825 -12.5402 -0.187424 6.29197 6.78394 5.42168 8.10212 5.23198 6.92299 3.91547
36.8375 -53.2042 -55.2692 -54.77 -54.7304 -54.7957 -2.88316 -4.25693 -12.6212 -12.4898
-12.5121 -3.46654 9.41807 3.1209 5.9846 7.08774 2.59863 2.37936 0.0994315 -0.872616
-10.9312 -5.22627 -4.12294 -11.3105 -4.18706 -12.1871 5.61504 -11.4152 -12.4475 -2.45938
1.22047 6.38831 6.39746 5.82515 8.91478 0.27212 6.69856 -3.10485 -1.09911 4.37802
-0.747438 7.27865 4.89475 -9.88606 9.06 -0.641504 6.17888 1.04566 1.44176 4.83294
5.18916 4.27532 4.98978 3.12467 7.6992 8.94556 5.49214 6.11015 0.980591 3.47598
11.1383 5.56481 0.843051 -0.549024 3.64805 173.15 176.975 176.115 181.029 169.128
168.097 172.677 179.948 180.94 69.3169 73.5365 54.6503 -56.2319 -41.4649 -38.5777
-36.8456 -30.9401 -43.8346 -51.9329 -51.5838 -55.3216 -46.8047 100.73 154.47 162.11
155.251 146.984 -56.6876 -56.2847 -56.6234 -56.3931 -55.9019 -56.3531 -54.986 -55.2899
-55.1312 4.04146 -0.245862 171.243 -18.3459 186.02 190.267 189.414 -51.3039 -47.2679
182.754 185.884 186.061 -16.3574 -51.123 85.2608 -55.1048 -55.2342 -55.4927 -55.4556
-49.5035 189.387 -2.33451 189.506 185.526 189.1 7.39471 -64.3032 110.563 109.87
-55.9785 4.65676 -51.7982 -53.109 -51.9117 -138.566 138.728 -54.9556 159.194 -52.0338
-120.865 -120.783 72.2578 6.9877 2.62844 168.083 164.696 -15.4211 139.849 191.11
190.006 185.408 189.458 190.795 189.79 172.8 191.165 186.786 189.96 191.2
0.614702 0.610239 0.635546 0.704623 0.91844 1.62203 2.20771 -3.9851 1.35492 0.0244676
-4.09912 -5.86822 0.408807 0.0900864 -0.00181322 0.00512087 0.0101922 0.00559811 0.00100981 -0.000561545
-0.000280658 0.0002531 0.00115208 0.000612758 -54.1249 -52.4095 -134.144 -134.7 -48.0055 -48.463
-49.1281 -47.8466 -48.3467 -49.0551 -49.7101 -47.3516 -95.2344 -74.846 -48.8456 -47.2022
-74.2842 -48.7695 -51.2389 -51.5928 -50.711 -99.6541 -111.309 -129.639 -119.933 -119.752

U 3 2021 float
20.0063 -0.0459272 -0.21554 20.0439 -0.0308708 -0.0739005 19.9292 -0.00650019 -0.0964337 19.9359 -0.0560572
-0.606205 20.0175 -0.0595193 0.0399599 20.0178 -0.0594137 0.0399925 20.1679 -0.0784593 0.057491
20.2326 -0.086662 0.0655158 20.2781 -0.0916512 0.149083 20.2907 -0.116582 0.263399 20.2097
-0.117843 0.208323 19.9545 -0.047445 0.019882 19.9967 -0.0548542 0.0183769 20.0037 -0.0531298
0.0069961 19.8529 -0.0247269 0.0177089 19.8517 -0.0214906 0.0141715 20.0059 -0.0528359 0.00190898
19.854 -0.0200685 0.00969503 20.0044 -0.0520142 0.000526687 19.8531 -0.0184053 0.0087998 20.0026
-0.0511913 -6.68904e-06 19.8517 -0.0168468 0.0085012 20.0011 -0.0504307 -0.000288435 19.8506 -0.0155075
0.00826856 19.9995 -0.0497473 -0.000470677 19.8495 -0.0143423 0.0080531 19.9979 -0.0490923 -0.000597577
19.8484 -0.0132801 0.00786411 19.9962 -0.048449 -0.000696352 19.8473 -0.0123139 0.00766436 19.9946
-0.0478206 -0.000732303 19.8463 -0.0114295 0.00757406 19.9926 -0.0471723 -0.000822383 19.8452 -0.0104995
0.00729626 19.8448 -0.0100149 0.00699618 19.9923 -0.0469654 -0.000862066 19.9996 -0.000342329 3.13046e-05
20 0 0 20 0 0 19.9996 -0.000342416 7.87573e-05 19.9983
-0.000790309 9.38817e-05 19.9984 -0.000800006 0.000278804 19.9942 -0.00155536 0.000367943 19.9941 -0.00152031
0.000999748 19.9788 -0.0028096 0.000334347 19.9796 -0.00313224 0.00357428 19.9465 -0.00549114 -0.00906484
19.9363 -0.00625379 -0.00798462 19.939 0.0022415 -0.0143356 19.9278 -0.00547161 -0.0295167 19.9062
0.00520931 -0.0610197 20.2331 -0.0729324 0.00189573 20.0485 -0.0290279 -0.0565527 20.2352 -0.0720188
0.00518364 19.9272 -0.0895481 0.030578 20.0248 -0.118954 0.0819289 20.2324 -0.0866303 0.064998
19.8549 -0.0299618 0.0234314 19.3071 0.120231 0.0100509 19.3392 0.117676 0.0111722 19.3672
0.111951 0.011237 19.3883 0.107664 0.0119295 19.4066 0.103884 0.0124405 19.4235 0.100295
0.0126222 19.4395 0.0969008 0.0126322 19.4545 0.0937056 0.0125637 19.4688 0.0906592 0.0124269
19.4819 0.087778 0.0123159 19.4966 0.0849615 0.0120372 19.5054 0.083512 0.0117796 20
0 0 19.9996 -0.000343011 0.000137434 19.9985 -0.000798543 0.000490441 19.9946 -0.0015266
0.00171889 19.9801 -0.00325487 0.0060286 19.9198 -0.0087955 0.010718 19.9195 -0.00797419 0.000979069
19.8501 -0.016629 -0.0957658 19.7934 -0.0205676 -0.0681651 19.956 -0.0514854 -1.02394 20.4352
-0.0686849 -0.9328 20.2161 -0.0539009 -0.507978 19.9307 -0.0560848 -0.635683 20.3092 -0.164451
0.452475 20.3096 -0.165339 0.455929 20.1011 -0.251302 0.581443 19.9913 -0.24048 0.300946