# vtk DataFile Version 2.0
tracks
ASCII
DATASET POLYDATA
POINTS 2585 float
-1.001 -0.05 0.0011 -0.900789 -0.0500215 0.00109731 -0.800577 -0.050043 0.00109463 -0.700366 -0.0500645
0.00109196 -0.600155 -0.0500858 0.00108929 -0.499943 -0.0501072 0.00108663 -0.424945 -0.0501111 0.00107893
-0.349947 -0.050152 0.00106879 -0.274949 -0.0501925 0.00105875 -0.19995 -0.0502326 0.00104879 -0.124952
-0.0502723 0.00103894 -0.0499538 -0.0502817 0.00103917 0.0250446 -0.0502905 0.0010479 0.100043 -0.0502992
0.00105671 0.175041 -0.0503081 0.0010656 0.25004 -0.050317 0.00107455 0.400037 -0.0503109 0.00109064
0.550035 -0.050309 0.00110485 0.700032 -0.050307 0.00111925 0.85003 -0.050305 0.00113383 1.00003
-0.050303 0.00114861 1.15003 -0.0503136 0.00115581 1.30002 -0.0503192 0.00116028 1.45002 -0.0503248
0.00116477 1.60002 -0.0503304 0.00116927 1.75002 -0.0503361 0.00117379 1.90002 -0.0503446 0.00117665
2.05002 -0.050351 0.00117858 2.20001 -0.0503574 0.0011805 2.35001 -0.0503638 0.00118244 2.50001
-0.0503702 0.00118437 2.65001 -0.0503782 0.00118542 2.80001 -0.0503861 0.0011861 2.95001 -0.0503941
0.00118678 3.10001 -0.0504021 0.00118746 3.25001 -0.0504101 0.00118815 3.40001 -0.050418 0.00118843
3.55001 -0.0504267 0.001189 3.70001 -0.0504354 0.00118957 3.85001 -0.0504442 0.00119013 4.00001
-0.0504529 0.0011907 4.15 -0.0504606 0.00119078 4.3 -0.0504701 0.00119144 4.45 -0.0504796
0.00119211 4.6 -0.0504891 0.00119277 4.75 -0.0504987 0.00119343 4.9 -0.0505062 0.00119343
5.05 -0.0505162 0.00119425 5.2 -0.0505262 0.00119507 5.35 -0.0505362 0.0011959 5.5
-0.0505463 0.00119672 5.65 -0.0505538 0.00119668 5.8 -0.0505641 0.00119766 5.95 -0.0505744
0.00119864 6.1 -0.0505847 0.00119962 6.25 -0.050595 0.0012006 6.4 -0.0506025 0.00120053
6.55 -0.050613 0.00120164 6.7 -0.0506235 0.00120276 6.85 -0.050634 0.00120388 7
-0.0506446 0.00120499 7.15 -0.0506519 0.00120491 7.3 -0.0506626 0.00120613 7.45 -0.0506733
0.00120735 7.6 -0.050684 0.00120858 7.75 -0.0506947 0.0012098 7.9 -0.0507019 0.0012097
8.05 -0.0507127 0.00121101 8.2 -0.0507235 0.00121232 8.35 -0.0507343 0.00121364 8.5
-0.0507451 0.00121495 8.65 -0.0507523 0.00121484 8.8 -0.0507632 0.00121623 8.95 -0.0507741
0.00121762 9.1 -0.0507849 0.00121901 9.25 -0.0507958 0.00122041 9.4 -0.050803 0.00122028
9.55 -0.0508597 0.00122237 9.7 -0.0509673 0.00122517 9.85 -0.051126 0.00122869 10
-0.0513356 0.00123292 -1.001 -0.05 0.0537316 -0.900807 -0.0501057 0.0535766 -0.800614 -0.0502116
0.0533944 -0.700421 -0.0503409 0.0531784 -0.600229 -0.050501 0.0529266 -0.500035 -0.0506918 0.0526393
-0.425004 -0.0509395 0.0524163 -0.349973 -0.0512763 0.0521261 -0.274943 -0.0516604 0.0518568 -0.199912
-0.052078 0.0516299 -0.124879 -0.0524798 0.0514855 -0.0498864 -0.0527452 0.0515221 0.0251064 -0.0529642
0.0516876 0.100099 -0.0531783 0.0519218 0.175092 -0.0534017 0.0522041 0.250087 -0.0536203 0.0525216
0.400077 -0.054004 0.0531574 0.550067 -0.0543854 0.0536726 0.700057 -0.0547257 0.0541391 0.850047
-0.0550248 0.0545564 1.00003 -0.0552908 0.054924 1.14673 -0.0556568 0.0552022 1.29342 -0.0559913
0.0554617 1.44012 -0.0563231 0.0556876 1.58681 -0.0566524 0.0558798 1.7041 -0.0569136 0.0560065
1.71328 -0.0569349 0.0560151 1.72247 -0.0569562 0.0560236 1.73165 -0.0569776 0.0560319 1.74083
-0.0569991 0.0560403 1.75002 -0.0570208 0.0560485 1.90002 -0.0573759 0.0561817 2.05002 -0.0577266
0.0562976 2.20001 -0.0580736 0.0563959 2.35001 -0.0584166 0.0564765 2.50001 -0.0587559 0.0565395
2.65001 -0.0591003 0.0565914 2.80001 -0.0594444 0.0566365 2.95001 -0.0597876 0.056674 3.10001
-0.0601301 0.0567038 3.25001 -0.0604717 0.0567259 3.40001 -0.0608143 0.0567429 3.55001 -0.0611583
0.0567592 3.70001 -0.0615007 0.0567735 3.85001 -0.0618417 0.0567858 4.00001 -0.0621812 0.056796
4.15 -0.0625186 0.0568039 4.3 -0.0628597 0.0568127 4.45 -0.0631993 0.0568208 4.6
-0.0635375 0.0568281 4.75 -0.0638742 0.0568347 4.9 -0.0642061 0.0568391 5.05 -0.0645433
0.0568453 5.2 -0.0648792 0.0568512 5.35 -0.0652137 0.0568566 5.5 -0.0655468 0.0568617
5.65 -0.0658733 0.0568643 5.8 -0.0662061 0.0568693 5.95 -0.0665377 0.0568742 6.1
-0.066868 0.0568787 6.25 -0.0671972 0.0568831 6.4 -0.0675184 0.0568845 6.55 -0.0678467
0.0568889 6.7 -0.0681739 0.0568932 6.85 -0.0684998 0.0568972 7 -0.0688246 0.0569012
7.15 -0.0691407 0.0569019 7.3 -0.0694644 0.0569059 7.45 -0.069787 0.0569098 7.6
-0.0701084 0.0569135 7.75 -0.0704286 0.0569172 7.9 -0.0707396 0.0569173 8.05 -0.0710587
0.0569211 8.2 -0.0713765 0.0569248 8.35 -0.0716933 0.0569286 8.5 -0.0720089 0.0569322
8.65 -0.0723149 0.0569323 8.8 -0.0726292 0.0569361 8.95 -0.0729423 0.0569397 9.1
-0.0732543 0.0569433 9.25 -0.0735651 0.0569467 9.4 -0.0738659 0.0569463 9.55 -0.0741758
0.0569498 9.7 -0.0744851 0.0569533 9.85 -0.0747939 0.0569567 10 -0.0751022 0.0569601
-1.001 -0.05 0.106363 -0.900818 -0.0500776 0.106138 -0.800636 -0.0501529 0.105866 -0.700455
-0.0502548 0.105547 -0.600274 -0.0504266 0.105005 -0.50009 -0.0506681 0.104243 -0.424996 -0.0509546
0.103657 -0.349901 -0.0513023 0.10305 -0.274807 -0.0516541 0.102512 -0.199711 -0.0519513 0.102082
-0.124607 -0.0522926 0.101979 -0.0496048 -0.0525395 0.102091 0.0253974 -0.0527312 0.102321 0.100399
-0.0529099 0.102633 0.175401 -0.053109 0.10303 0.250411 -0.0533283 0.103512 0.400346 -0.053732
0.104512 0.550283 -0.0541344 0.105385 0.70022 -0.054498 0.10617 0.850157 -0.054831 0.106788
1.00009 -0.0551332 0.107238 1.15007 -0.055571 0.107503 1.30006 -0.0558651 0.1078 1.45005
-0.0561086 0.108076 1.60003 -0.0563461 0.108319 1.75002 -0.0565777 0.10853 1.90002 -0.0568835
0.108675 2.05002 -0.0571257 0.10883 2.20001 -0.0573621 0.108969 2.35001 -0.0575959 0.109091
2.50001 -0.0578273 0.109196 2.65001 -0.0581154 0.109265 2.80001 -0.0583612 0.109332 2.95001
-0.0586058 0.109392 3.10001 -0.0588497 0.109445 3.25001 -0.0590929 0.10949 3.40001 -0.0593794
0.109524 3.55001 -0.0596292 0.109558 3.70001 -0.059877 0.109589 3.85001 -0.0601234 0.109618
4 -0.0603681 0.109646 4.15 -0.0606486 0.109672 4.3 -0.0608984 0.109693 4.45
-0.0611463 0.109714 4.6 -0.0613928 0.109733 4.75 -0.0616376 0.109753 4.9 -0.0619117
0.109775 5.05 -0.0621596 0.10979 5.2 -0.0624058 0.109805 5.35 -0.0626506 0.10982
5.5 -0.062894 0.109834 5.65 -0.0631617 0.109854 5.8 -0.0634071 0.109865 5.95
-0.063651 0.109876 6.1 -0.0638936 0.109887 6.25 -0.064135 0.109897 6.4 -0.0643967
0.109916 6.55 -0.0646392 0.109924 6.7 -0.0648804 0.109932 6.85 -0.0651204 0.10994
7 -0.0653591 0.109947 7.15 -0.065615 0.109966 7.3 -0.0658544 0.109971 7.45
-0.0660925 0.109977 7.6 -0.0663295 0.109982 7.75 -0.0665653 0.109987 7.9 -0.0668155
0.110005 8.05 -0.0670517 0.110009 8.2 -0.0672866 0.110013 8.35 -0.0675204 0.110016
8.5 -0.067753 0.11002 8.65 -0.0679978 0.110037 8.8 -0.0682305 0.11004 8.95
-0.0684618 0.110043 9.1 -0.068692 0.110045 9.25 -0.0689211 0.110047 9.4 -0.0691602
0.110064 9.55 -0.0693896 0.110065 9.7 -0.0696184 0.110066 9.85 -0.0698467 0.110067
10 -0.0700745 0.110068 -1.001 -0.05 0.158995 -0.900796 -0.0500881 0.15877 -0.800593
-0.050192 0.158425 -0.700392 -0.0503529 0.157688 -0.600196 -0.0505835 0.156476 -0.499992 -0.0508756
0.154635 -0.42472 -0.0514819 0.153031 -0.349436 -0.0519483 0.152109 -0.274149 -0.0523437 0.151545
-0.198859 -0.0527371 0.151249 -0.123699 -0.0530526 0.151301 -0.0487804 -0.0531737 0.151463 0.0261372
-0.0532498 0.151944 0.101053 -0.0533871 0.152649 0.175968 -0.0535511 0.153447 0.250944 -0.0537026
0.154275 0.400783 -0.0539098 0.155698 0.550624 -0.0544114 0.156876 0.700468 -0.054879 0.157631
0.850313 -0.0552731 0.158229 1.00014 -0.0556363 0.15866 1.15012 -0.0561358 0.158905 1.30009
-0.0564911 0.159183 1.45007 -0.0567538 0.159451 1.60005 -0.0569402 0.159705 1.75002 -0.0571207
0.159927 1.90002 -0.0573764 0.160082 2.05002 -0.057568 0.160248 2.20002 -0.0577475 0.1604
2.35001 -0.0579183 0.160536 2.50001 -0.0580867 0.160656 2.65001 -0.0583122 0.160739 2.80001
-0.0584954 0.160821 2.95001 -0.0586762 0.160896 3.10001 -0.0588555 0.160965 3.25001 -0.0590342
0.161025 3.40001 -0.0592561 0.161075 3.55001 -0.0594415 0.161124 3.70001 -0.0596242 0.161172
3.85001 -0.0598046 0.161217 4 -0.0599835 0.161261 4.15 -0.0601979 0.161304 4.3
-0.0603819 0.161342 4.45 -0.0605633 0.161379 4.6 -0.0607426 0.161416 4.75 -0.0609204
0.161452 4.9 -0.0611271 0.161492 5.05 -0.0613079 0.161524 5.2 -0.0614866 0.161556
5.35 -0.0616633 0.161587 5.5 -0.0618386 0.161618 5.65 -0.0620379 0.161656 5.8
-0.0622152 0.161685 5.95 -0.0623906 0.161713 6.1 -0.0625643 0.16174 6.25 -0.0627368
0.161768 6.4 -0.0629292 0.161804 6.55 -0.0631029 0.161829 6.7 -0.0632748 0.161854
6.85 -0.0634451 0.161879 7 -0.0636143 0.161903 7.15 -0.0638001 0.161939 7.3
-0.06397 0.161961 7.45 -0.0641382 0.161984 7.6 -0.064305 0.162006 7.75 -0.0644706
0.162028 7.9 -0.0646503 0.162063 8.05 -0.0648163 0.162084 8.2 -0.0649808 0.162104
8.35 -0.065144 0.162125 8.5 -0.0653061 0.162146 8.65 -0.0654799 0.16218 8.8
-0.0656419 0.162199 8.95 -0.0658024 0.162219 9.1 -0.0659615 0.162238 9.25 -0.0661195
0.162257 9.4 -0.0662872 0.16229 9.55 -0.0664455 0.162307 9.7 -0.0666029 0.162325
9.85 -0.0667596 0.162342 10 -0.0669159 0.162359 -1.001 -0.05 0.211626 -0.947632
-0.0500803 0.211469 -0.894265 -0.0501652 0.211279 -0.840897 -0.0502546 0.211055 -0.78753 -0.0503887
0.210764 -0.724308 -0.0506322 0.210285 -0.679432 -0.0509096 0.209635 -0.634561 -0.0512442 0.208755
-0.589692 -0.0515825 0.207739 -0.544826 -0.0519258 0.206585 -0.499928 -0.0522755 0.20529 -0.469476
-0.0525686 0.204238 -0.439025 -0.0528719 0.203122 -0.40857 -0.0531597 0.202133 -0.378111 -0.0534331
0.201265 -0.330072 -0.0538491 0.200029 -0.289017 -0.0541885 0.199118 -0.247959 -0.0545275 0.198421
-0.206896 -0.0548706 0.198039 -0.165831 -0.0551784 0.197946 -0.124884 -0.0554111 0.198118 -0.0496121
-0.0557145 0.198825 0.0256573 -0.0558487 0.199773 0.100922 -0.0559549 0.201053 0.176185 -0.0560945
0.202413 0.251487 -0.0562274 0.203567 0.252194 -0.0562285 0.203576 0.252901 -0.0562295 0.203586
0.253608 -0.0562306 0.203595 0.254315 -0.0562316 0.203604 0.255029 -0.0562327 0.203614 0.329077
-0.0563427 0.20458 0.403127 -0.0564547 0.205421 0.477179 -0.0565689 0.206136 0.551231 -0.0567121
[...]
POINT_DATA 2585
FIELD attributes 4
age 1 2585 float
0 0.00501121 0.0100224 0.0150336 0.0200448 0.0250561 0.0288056 0.0325533 0.036301 0.0400488 0.0437965
0.0475449 0.0512906 0.0550362 0.0587817 0.0625272 0.070024 0.0775229 0.0850219 0.0925208 0.10002
0.10752 0.115019 0.122519 0.130019 0.137519 0.145019 0.152519 0.160019 0.167518 0.175018
0.182518 0.190018 0.197517 0.205017 0.212517 0.220017 0.227516 0.235016 0.242516 0.250015
0.257515 0.265015 0.272515 0.280015 0.287514 0.295014 0.302514 0.310014 0.317513 0.325013
0.332513 0.340013 0.347512 0.355012 0.362512 0.370012 0.377512 0.385011 0.392511 0.400011
0.407511 0.415011 0.42251 0.43001 0.43751 0.44501 0.45251 0.460009 0.467509 0.475009
0.482509 0.490009 0.497508 0.505008 0.512508 0.520008 0.527507 0.535005 0.542503 0.55
0 0.00502605 0.0100534 0.0150748 0.020088 0.0250931 0.0288322 0.0325653 0.0362918 0.0400114
0.0437248 0.047431 0.0511302 0.0548276 0.0585249 0.062224 0.0696346 0.0770706 0.0845214 0.0919869
0.0994671 0.106796 0.114126 0.121457 0.12879 0.134654 0.135113 0.135572 0.136031 0.13649
0.13695 0.14445 0.15195 0.15945 0.166948 0.174447 0.181945 0.189442 0.196939 0.204436
0.211933 0.219431 0.226928 0.234424 0.241922 0.249419 0.256917 0.264414 0.271912 0.279409
0.286907 0.294405 0.301903 0.309401 0.316899 0.324398 0.331897 0.339395 0.346894 0.354392
0.361891 0.36939 0.376889 0.384388 0.391887 0.399386 0.406886 0.414386 0.421885 0.429385
0.436885 0.444385 0.451885 0.459385 0.466885 0.474385 0.481886 0.489387 0.496887 0.504388
0.511889 0.51939 0.526891 0.534392 0.541893 0.549394 0 0.00502804 0.0100579 0.015082
0.0200995 0.0251106 0.0288576 0.0325976 0.0363284 0.0400542 0.0437703 0.047475 0.0511739 0.0548717
0.0585686 0.062265 0.0696633 0.0770886 0.0845321 0.0919976 0.0994849 0.106988 0.114492 0.122
0.129508 0.137018 0.144533 0.152042 0.15955 0.167058 0.174565 0.182077 0.189583 0.197088
0.204594 0.212099 0.21961 0.227115 0.23462 0.242125 0.249631 0.257143 0.264648 0.272154
0.279659 0.287165 0.294678 0.302183 0.309689 0.317195 0.324701 0.332214 0.33972 0.347227
0.354733 0.362239 0.369753 0.377259 0.384766 0.392273 0.399779 0.407293 0.4148 0.422307
0.429814 0.437322 0.444836 0.452343 0.459851 0.467358 0.474866 0.482381 0.489889 0.497396
0.504904 0.512412 0.519928 0.527436 0.534944 0.542452 0.54996 0 0.00503014 0.0100663
0.0150996 0.0201271 0.0251497 0.0289155 0.0326694 0.0364113 0.0401429 0.0438576 0.0475526 0.0512421
0.0549305 0.0586181 0.0623093 0.0696964 0.0771197 0.0845737 0.0920441 0.0995358 0.107048 0.114561
0.12208 0.129602 0.137125 0.144655 0.152178 0.159701 0.167224 0.174746 0.182273 0.189794
0.197315 0.204835 0.212355 0.219882 0.227402 0.234923 0.242443 0.249963 0.25749 0.265011
0.272532 0.280052 0.287573 0.295101 0.302622 0.310143 0.317664 0.325185 0.332714 0.340235
0.347756 0.355278 0.362799 0.370328 0.37785 0.385372 0.392894 0.400416 0.407945 0.415467
0.422989 0.430511 0.438034 0.445564 0.453086 0.460609 0.468131 0.475654 0.483184 0.490707
0.49823 0.505753 0.513277 0.520807 0.528331 0.535854 0.543378 0.550901 0 0.00268273
0.00536714 0.00805324 0.0107387 0.013918 0.0161732 0.018428 0.0206821 0.0229354 0.0251896 0.0267161
0.0282407 0.0297622 0.0312809 0.0336705 0.0357049 0.0377336 0.0397568 0.0417744 0.0437806 0.0474593
0.0511393 0.0548206 0.0585085 0.0622091 0.062244 0.0622788 0.0623136 0.0623484 0.0623836 0.0660315
0.0696893 0.073357 0.0770348 0.0807225 0.08131 0.0818974 0.0824849 0.0830725 0.0836458 0.0868075
0.0899718 0.0931388 0.0963083 0.0994799 0.107 0.114522 0.122049 0.129581 0.137117 0.144661
0.152197 0.159734 0.167271 0.174807 0.18235 0.189885 0.19742 0.204955 0.21249 0.220031
0.227566 0.235101 0.242635 0.25017 0.257712 0.265247 0.272782 0.280318 0.287853 0.295395
0.302931 0.310467 0.318002 0.325538 0.333081 0.340617 0.348153 0.355689 0.363225 0.370768
0.378305 0.385841 0.393378 0.400914 0.408458 0.415995 0.423532 0.431069 0.438605 0.44615
0.453687 0.461224 0.468762 0.476299 0.483844 0.491381 0.498919 0.506457 0.513994 0.52154
0.529078 0.536616 0.544154 0.551692 0 0.00126445 0.00252927 0.00379478 0.00506109 0.00632822
0.0101158 0.0139117 0.0177192 0.0215333 0.0253299 0.0269112 0.0284824 0.0300467 0.0316039 0.0329885
0.0333173 0.0336457 0.0339738 0.0343017 0.0346295 0.0364577 0.0382789 0.0400911 0.0418981 0.0436956
0.0454961 0.0473012 0.0491183 0.0509403 0.0527665 0.0529298 0.0530931 0.0532565 0.0534198 0.0535918
0.0552581 0.0569271 0.0585988 0.0602735 0.0619506 0.0656463 0.069359 0.0730897 0.0768312 0.0805817
0.0843453 0.0881081 0.0918715 0.0956376 0.0994061 0.106942 0.11448 0.122022 0.129568 0.137118
0.144683 0.152236 0.159789 0.167341 0.174894 0.182454 0.190006 0.197557 0.205108 0.21266
0.220218 0.227769 0.235319 0.24287 0.250421 0.25798 0.265531 0.273082 0.280634 0.288185
0.295744 0.303296 0.310847 0.318399 0.325951 0.33351 0.341062 0.348614 0.356166 0.363718
0.371278 0.37883 0.386382 0.393935 0.401487 0.409047 0.4166 0.424152 0.431705 0.439258
0.446819 0.454371 0.461924 0.469477 0.477031 0.484591 0.492145 0.499698 0.507251 0.514805
0.522366 0.529919 0.537473 0.545026 0.55258 0 0.00126545 0.00253141 0.00379789 0.00506489
0.00633242 0.00822681 0.0101236 0.0120228 0.0139249 0.0158291 0.0177465 0.0196689 0.0215922 0.0235187
0.0254575 0.0264287 0.0273972 0.0283613 0.0293209 0.0302804 0.0307551 0.0312283 0.0316994 0.0321684
0.0326796 0.0331363 0.0335909 0.0340435 0.0344941 0.0349422 0.0358527 0.0367599 0.037663 0.0385619
0.0394518 0.040341 0.0412288 0.0421158 0.0430025 0.0438897 0.04526 0.0466374 0.048022 0.0493708
0.0528847 0.0547136 0.0565563 0.0584103 0.060271 0.0621326 0.0640039 0.0658764 0.0677512 0.0696286
0.0715099 0.0733987 0.0752818 0.0771613 0.0790426 0.080929 0.0840303 0.0871356 0.0902425 0.093351
0.0959859 0.0967731 0.0975604 0.0983478 0.0991354 0.0999231 0.107516 0.115111 0.12271 0.130313
0.13792 0.145552 0.153159 0.160761 0.168363 0.175964 0.183585 0.191184 0.198782 0.20638
0.213977 0.221593 0.22919 0.236786 0.244382 0.251978 0.259593 0.267189 0.274784 0.28238
0.289976 0.297589 0.305185 0.31278 0.320375 0.327971 0.335582 0.343177 0.350772 0.358367
0.365962 0.373572 0.381167 0.388762 0.396356 0.403951 0.41156 0.419155 0.426749 0.434343
0.441938 0.449545 0.457139 0.464733 0.472327 0.479921 0.487528 0.495122 0.502715 0.510308
0.517902 0.525507 0.5331 0.540693 0.548286 0.55588 0 0.00126279 0.00252625 0.00379075
0.00505642 0.00632328 0.00823331 0.0101453 0.0120611 0.0139802 0.0159047 0.017822 0.0197522 0.0216953
0.0236512 0.0256294 0.0266293 0.0276302 0.0286314 0.0296319 0.0306442 0.0308914 0.0311385 0.0313853
0.0316301 0.0318199 0.032571 0.0333097 0.0340354 0.0347475 0.0354518 0.035899 0.0363446 0.0367885
0.037231 0.0376675 0.038105 0.0385397 0.0389718 0.0394033 0.0398322 0.0402641 0.040696 0.041128
0.0415605 0.0419956 0.042431 0.0428658 0.0433009 0.0437368 0.044175 0.0450518 0.045938 0.0468343
0.0477422 0.0486675 0.0494365 0.0502042 0.0509744 0.0517481 0.0527058 0.0528363 0.052967 0.0530976
0.0532284 0.0533592 0.054313 0.055266 0.0562208 0.0571777 0.0581369 0.0591053 0.0600727 0.0610412
0.0620127 0.062986 0.0649546 0.0669177 0.0688753 0.0708373 0.072783 0.0747143 0.0766606 0.0786223
0.0805876 0.0825573 0.086516 0.0904663 0.0943907 0.098301 0.102214 0.110039 0.117832 0.125554
0.133218 0.140887 0.148584 0.15626 0.163931 0.171598 0.179263 0.186944 0.194607 0.202268
0.209928 0.217587 0.22526 0.232919 0.240576 0.248232 0.255887 0.263557 0.271212 0.278867
0.28652 0.294174 0.301839 0.309492 0.317145 0.324796 0.332447 0.340109 0.347761 0.355411
0.36306 0.370709 0.378368 0.386017 0.393665 0.401313 0.40896 0.416616 0.424263 0.431909
0.439555 0.4472 0.454853 0.462498 0.470142 0.477786 0.48543 0.49308 0.500723 0.508366
0.516007 0.523648 0.531296 0.538937 0.546578 0.554218 0.561858 0 0.00126442 0.00252948
0.00379519 0.00506155 0.00632916 0.00824621 0.0101657 0.0120884 0.0140175 0.0159587 0.0169288 0.0179018
0.0188779 0.0198572 0.0208397 0.0218273 0.0228231 0.0238278 0.0248416 0.0258657 0.0263833 0.0269027
0.0274258 0.0279525 0.0284855 0.0287758 0.0290674 0.0293614 0.029658 0.0297559 0.0300561 0.0303576
0.03066 0.0309622 0.0312727 0.0313699 0.031467 0.0315644 0.0316619 0.0317331 0.0317676 0.0318022
0.0318368 0.0318713 0.0319043 0.0320678 0.0322311 0.0323943 0.0325573 0.0327216 0.0329003 0.0330787
0.0332565 0.0334314 0.0335605 0.0336662 0.0337713 0.0338758 0.0339794 0.0340845 0.0341952 0.0343044
0.0344122 0.034519 0.0346062 0.0346603 0.0347141 0.0347675 0.0348207 0.0348727 0.0349704 0.0350677
0.0351646 0.0352609 0.0353552 0.0354772 0.0355976 0.0357167 0.0358347 0.0360269 0.0361276 0.036228
0.036328 0.0364278 0.0365177 0.036606 0.0366944 0.0367828 0.0368711 0.0370341 0.0371537 0.0372731
0.0373923 0.0375114 0.0376289 0.0378475 0.0380647 0.0382818 0.0384995 0.0387137 0.0389314 0.0391486
0.0393661 0.039584 0.0398017 0.0400222 0.0402412 0.0404604 0.0406799 0.0409001 0.0411201 0.0413396
0.0415595 0.0417802 0.0420032 0.0422275 0.04245 0.0426726 0.0428959 0.0431202 0.0434625 0.0438065
0.0441564 0.0445123 0.0446738 0.0448284 0.0449833 0.0451385 0.045294 0.0454506 0.0459375 0.0464172
0.0468972 0.0473726 0.0478688 0.0483856 0.0488919 0.0493993 0.0499114 0.0504308 0.0505068 0.050583
0.0506593 0.0507358 0.0508106 0.0518135 0.0528594 0.0539504 0.0550013 0.0560643 0.0572686 0.0584504
0.0596338 0.0608232 0.0620127 0.0624292 0.0628447 0.06326 0.0636756 0.0641462 0.0649359 0.0657178
0.0664971 0.0672784 0.0680586 0.0681765 0.0682942 0.0684116 0.0685287 0.0686449 0.0697191 0.0707871
0.0718533 0.0729174 0.0739762 0.0751297 0.0763047 0.0774834 0.0786636 0.0798462 0.0813352 0.0828252
0.0843216 0.0858215 0.0877426 0.0884663 0.089187 0.0899047 0.0906195 0.091331 0.0958394 0.100323
0.104733 0.109052 0.11324 0.121413 0.129524 0.137562 0.145528 0.153413 0.161174 0.168935
0.176692 0.184448 0.1922 0.199949 0.207698 0.215444 0.223189 0.230932 0.23807 0.245208
0.252345 0.25948 0.266743 0.267318 0.267894 0.26847 0.269045 0.269621 0.277354 0.285088
0.292823 0.300557 0.308291 0.316017 0.323751 0.331485 0.339219 0.346953 0.354672 0.362405
0.370138 0.377872 0.385605 0.393318 0.40105 0.408783 0.416516 0.424249 0.431955 0.439687
0.447419 0.455151 0.462883 0.470583 0.478314 0.486045 0.493776 0.501507 0.509202 0.516932
0.524662 0.532391 0.54012 0.54781 0.555537 0.563264 0.570992 0.57872 0 0.00125411
0.00250917 0.00376554 0.00502335 0.00628273 0.00821404 0.010148 0.0120848 0.0140287 0.0159869 0.0169596
0.0179361 0.0189168 0.0199014 0.0208902 0.0218847 0.02289 0.0239069 0.0249356 0.0259773 0.0265059
0.0270377 0.0275763 0.0281216 0.0286759 0.0292414 0.0298147 0.0304009 0.0310012 0.0316279 0.0319468
0.0322656 0.0325852 0.0329057 0.0332408 0.0333117 0.0333825 0.0334534 0.0335243 0.0335822 0.0336591
0.0337346 0.0338092 0.0338832 0.0339454 0.0341166 0.0342846 0.0344493 0.0346105 0.0347771 0.0349198
0.0350598 0.0351971 0.0353311 0.0354505 0.0355707 0.0356904 0.0358095 0.0359271 0.0360388 0.0361562
0.0362704 0.0363817 0.0364925 0.0366386 0.0367455 0.0368523 0.0369589 0.0370652 0.0371627 0.0373587
0.0375546 0.0377537 0.0379556 0.0383664 0.0386024 0.0388392 0.0390738 0.0393065 0.0395342 0.0399968
0.0404534 0.0409067 0.041357 0.0418027 0.0422609 0.0427037 0.0431498 0.0435991 0.0440514 0.0445261
0.0449947 0.0454739 0.0459577 0.0464496 0.0472835 0.0481361 0.0490017 0.0498799 0.0517944 0.0529193
0.0540451 0.0551946 0.0563646 0.0575686 0.0588306 0.0600653 0.0612829 0.0625101 0.063743 0.0646282
0.0655012 0.0663734 0.0672405 0.068364 0.0686835 0.0690031 0.069323 0.0696433 0.069964 0.0706486
0.0713338 0.0720197 0.0727068 0.0735315 0.0740654 0.0745991 0.0751325 0.0756648 0.0761945 0.0774398
0.0786891 0.0799461 0.0812039 0.0824613 0.0849567 0.0874562 0.0899245 0.0923494 0.0947467 0.0995839
0.104372 0.10902 0.113531 0.117889 0.121437 0.124973 0.128495 0.132004 0.136339 0.140949
0.145502 0.149999 0.154443 0.158833 0.166593 0.174362 0.182129 0.189896 0.197661 0.205405
0.213169 0.220932 0.228694 0.236457 0.24419 0.25195 0.259711 0.267472 0.275232 0.282957
0.290716 0.298476 0.306235 0.313995 0.321712 0.329471 0.337229 0.344987 0.352746 0.360457
0.368214 0.375971 0.383728 0.391486 0.399191 0.406946 0.414702 0.422458 0.430214 0.437913
0.445668 0.453422 0.461176 0.468931 0.476624 0.484377 0.492129 0.499882 0.507635 0.515324
0.523074 0.530825 0.538576 0.546326 0.55401 0.561757 0.569504 0.577252 0.585001 0
0.00125903 0.00251874 0.00377913 0.00504095 0.0063044 0.00823309 0.0101647 0.0120993 0.0140412 0.0159973
0.0169702 0.0179472 0.0189283 0.0199135 0.0209031 0.0218976 0.0229027 0.0239194 0.024948 0.0259895
0.0265185 0.0270504 0.027588 0.0281324 0.028686 0.029249 0.0298197 0.0303998 0.0309926 0.0316148
0.031931 0.0322478 0.032565 0.0328823 0.033212 0.0334501 0.0336869 0.0339217 0.0341504 0.0342471
0.0343507 0.0344531 0.0345545 0.0346548 0.0347577 0.0349591 0.0351536 0.0353416 0.0355236 0.0356783
0.0357571 0.0358355 0.0359133 0.0359902 0.0360654 0.0360677 0.03607 0.0360723 0.0360746 0.0360769
0.0362204 0.0363625 0.0365033 0.0366427 0.036846 0.036922 0.0369979 0.0370736 0.0371493 0.0372211
0.0376791 0.0381422 0.0386188 0.039103 0.0395168 0.0399782 0.0404287 0.0408778 0.041329 0.0417882
0.0422636 0.0427295 0.043192 0.043657 0.0441312 0.0446227 0.045105 0.045582 0.0460641 0.0465602
0.0475923 0.0486472 0.049714 0.0508009 0.0516565 0.05171 0.0517635 0.0518169 0.0518702 0.0519236
0.0530517 0.0542059 0.0553873 0.0565913 0.0578147 0.0590863 0.0603353 0.0615647 0.0628109 0.0640508
0.0646739 0.0652873 0.0658981 0.0665075 0.0671192 0.0677449 0.0683609 0.0689683 0.0695766 0.0701908
0.0714402 0.0726994 0.0739554 0.0752063 0.0764468 0.0772533 0.0780519 0.0788516 0.0796532 0.0805548
0.0809838 0.0814129 0.0818423 0.0822726 0.0827037 0.0852119 0.0877052 0.0901834 0.092604 0.0949957
0.0997548 0.104466 0.109066 0.113553 0.117897 0.125089 0.132185 0.139154 0.145998 0.159132
0.163909 0.168685 0.17346 0.178234 0.183126 0.186075 0.189024 0.191972 0.194921 0.197869
0.205608 0.21335 0.221092 0.228833 0.236574 0.244302 0.252042 0.259781 0.267521 0.27526
0.28298 0.290718 0.298457 0.306196 0.313935 0.321648 0.329386 0.337124 0.344862 0.3526
0.360307 0.368044 0.375781 0.383518 0.391256 0.398956 0.406692 0.414429 0.422165 0.429901
0.437596 0.445331 0.453066 0.460802 0.468537 0.476227 0.48396 0.491694 0.499428 0.507162
0.514847 0.522579 0.530311 0.538043 0.545775 0.553455 0.561184 0.568914 0.576644 0.584374
0 0.00127992 0.00256048 0.0038423 0.00512559 0.00641038 0.00831682 0.0102258 0.0121375 0.0140557
0.015986 0.016958 0.0179331 0.0189115 0.0198934 0.0208789 0.021873 0.0228762 0.0238893 0.0249123
0.0259475 0.0263899 0.0268339 0.0272814 0.0277322 0.0278558 0.0280049 0.0281542 0.0283036 0.0284531
0.0286029 0.0291463 0.029694 0.0302489 0.0308126 0.0313973 0.0314724 0.0315476 0.0316226 0.0316978
0.031763 0.0319802 0.0321973 0.0324143 0.0326311 0.0328514 0.0329313 0.0330111 0.0330908 0.0331703
0.0332392 0.0334502 0.0336603 0.0338694 0.0340752 0.0342874 0.0343499 0.0344119 0.0344735 0.0345347
0.0345877 0.0345929 0.0345982 0.0346034 0.0346086 0.0346137 0.0348291 0.0350399 0.0352463 0.0354452
0.0356357 0.0356573 0.0356789 0.0357005 0.035722 0.035744 0.0358459 0.0359469 0.0360468 0.0361481
0.0362928 0.0363864 0.0364794 0.0365718 0.0366632 0.0367523 0.0368559 0.0369589 0.0370613 0.0371639
0.0373119 0.0374111 0.0375102 0.0376093 0.0377092 0.0378068 0.0380186 0.0382286 0.038438 0.0386468
0.0388589 0.0390789 0.0392944 0.0395056 0.0397169 0.0399308 0.040147 0.0403615 0.040575 0.0407891
0.0410058 0.041227 0.0414447 0.041661 0.0418777 0.0420953 0.0423142 0.0425316 0.0427488 0.0429664
0.0431854 0.0436307 0.0440763 0.0445252 0.0449774 0.045438 0.0459172 0.0463843 0.0468432 0.0473051
0.0477806 0.0482636 0.0487447 0.0492259 0.0497108 0.0502037 0.0512208 0.0522436 0.0532788 0.0543679
0.0554739 0.0558252 0.0561768 0.0565294 0.0568835 0.0572565 0.0580622 0.0588673 0.0596721 0.0604804
0.0612971 0.0624981 0.0636754 0.0648597 0.0660589 0.0672523 0.0684802 0.0696841 0.0708656 0.0720406
0.0732077 0.0736404 0.0740724 0.0745048 0.0749376 0.0753625 0.0756863 0.0760102 0.0763344 0.0766587
0.0769918 0.077409 0.0778265 0.0782444 0.0786626 0.079081 0.0814287 0.0837782 0.0861269 0.0884454
0.0907363 0.0952495 0.0998153 0.104286 0.108613 0.112832 0.121143 0.129424 0.137642 0.145688
0.153564 0.161306 0.169047 0.176785 0.184519 0.192251 0.199978 0.207706 0.215431 0.223155
0.230878 0.237447 0.244015 0.250583 0.257151 0.263725 0.264873 0.266021 0.267169 0.268317
0.269465 0.277178 0.284893 0.292608 0.300323 0.308037 0.315744 0.323459 0.331173 0.338888
0.346602 0.354303 0.362017 0.369731 0.377445 0.38516 0.392854 0.400568 0.408281 0.415995
0.423709 0.431398 0.439111 0.446824 0.454537 0.46225 0.469934 0.477646 0.485358 0.49307
0.500782 0.508461 0.516172 0.523883 0.531594 0.539304 0.546979 0.554687 0.562396 0.570105
0.577815 0 0.00127753 0.00255577 0.00383512 0.00511576 0.00639768 0.00829926 0.0102028 0.0121092
0.0140204 0.0159397 0.0169038 0.0178699 0.0188378 0.0198081 0.0207805 0.0217543 0.0227331 0.0237171
0.0247058 0.0256982 0.0266889 0.027686 0.0286914 0.0296919 0.0307004 0.0307756 0.0308508 0.0309259
0.0310009 0.0310702 0.0319926 0.0328954 0.0337778 0.034639 0.0354976 0.0359456 0.0363912 0.0368349
0.0372774 0.0377145 0.0381531 0.0385892 0.0390245 0.039459 0.0398878 0.0403209 0.0407541 0.0411877
0.0416215 0.042056 0.0424922 0.0429273 0.0433633 0.0438002 0.044239 0.0451172 0.0460039 0.0468971
0.0477979 0.0487236 0.0496708 0.0506103 0.0515433 0.0524831 0.0534324 0.0541612 0.0548954 0.0556318
0.05637 0.0575019 0.057659 0.0578162 0.0579736 0.058131 0.0582886 0.0592725 0.0602559 0.0612396
0.0622232 0.0632056 0.0652061 0.0671935 0.0691702 0.0711564 0.0731403 0.0750991 0.0770843 0.0790843
0.0810883 0.0830941 0.0871071 0.0911372 0.0951355 0.0990883 0.103035 0.105909 0.108788 0.111675
0.114554 0.117947 0.122894 0.127813 0.132705 0.13757 0.142408 0.150118 0.157831 0.165541
0.173249 0.180954 0.188648 0.196349 0.204048 0.211746 0.219443 0.22713 0.234823 0.242515
0.250207 0.257897 0.265579 0.273267 0.280954 0.28864 0.296325 0.304004 0.311687 0.319369
0.32705 0.334731 0.342407 0.350085 0.357763 0.36544 0.373116 0.380789 0.388463 0.396137
0.40381 0.411482 0.419152 0.426822 0.434492 0.442162 0.44983 0.457497 0.465164 0.47283
0.480496 0.488162 0.495825 0.503489 0.511152 0.518815 0.526476 0.534136 0.541796 0.549456
0.557116 0.564775 0 0.00127409 0.0025488 0.00382396 0.00510035 0.00637797 0.00827387 0.0101719
0.0120722 0.0139756 0.015883 0.0177923 0.0197069 0.0216263 0.0235504 0.0254825 0.0264533 0.0274212
0.0283841 0.0293421 0.0299596 0.030978 0.0319888 0.0329891 0.0339791 0.0349575 0.0358664 0.0367721
0.0376736 0.0385722 0.0394617 0.0403524 0.0412415 0.0421296 0.0430166 0.043903 0.0456802 0.0474748
0.0492838 0.0511025 0.0529377 0.0538035 0.0546706 0.0555397 0.056411 0.057764 0.0586511 0.0595399
0.0604306 0.0613231 0.062217 0.0640927 0.0659712 0.0678524 0.0697364 0.0716223 0.0735178 0.0754056
0.0772943 0.0791844 0.0810756 0.0848717 0.088667 0.0924668 0.0962711 0.100089 0.107788 0.11549
0.123147 0.130767 0.138401 0.14605 0.153697 0.161342 0.168985 0.176626 0.184273 0.191915
0.199556 0.207196 0.214834 0.222476 0.230114 0.237751 0.245387 0.253023 0.260661 0.268296
0.275931 0.283565 0.291198 0.298834 0.306467 0.314099 0.321731 0.329361 0.336995 0.344626
0.352256 0.359885 0.367514 0.375145 0.382774 0.390402 0.39803 0.405656 0.413285 0.420912
0.428538 0.436163 0.443788 0.451415 0.45904 0.466664 0.474287 0.48191 0.489535 0.497158
0.50478 0.512402 0.520023 0.527645 0.535266 0.542886 0.550506 0.558125 0 0.00127142
0.00254321 0.00381554 0.00508846 0.00636199 0.0101414 0.0139323 0.0177224 0.0215091 0.0252997 0.0257901
0.0262793 0.0267676 0.027255 0.0276841 0.0290741 0.0304589 0.0318386 0.0332131 0.0345851 0.0364262
0.0382579 0.0400727 0.0418834 0.043689 0.0455002 0.0473089 0.0491189 0.0509376 0.0527676 0.0546038
0.0564415 0.058282 0.0601253 0.0619713 0.0656734 0.0693894 0.0731215 0.0768684 0.0806191 0.0843896
0.0881582 0.091927 0.0956979 0.0994712 0.107001 0.11453 0.122063 0.129611 0.137174 0.144753
0.152328 0.159906 0.167483 0.175059 0.182641 0.190218 0.197795 0.205372 0.212948 0.220527