# Force coefficients
# liftDir     : (0.000000e+00 0.000000e+00 1.000000e+00)
# dragDir     : (1.000000e+00 0.000000e+00 0.000000e+00)
# pitchAxis   : (0.000000e+00 1.000000e+00 0.000000e+00)
# magUInf     : 2.000000e+01
# lRef        : 1.420000e+00
# Aref        : 7.500000e-01
# CofR        : (7.200000e-01 0.000000e+00 0.000000e+00)
# Time        	Cm            	Cd            	Cl            	Cl(f)         	Cl(r)         
0             	3.540195e-04	9.874706e-04	2.133685e-07	3.541262e-04	-3.539128e-04
1             	1.424057e-01	3.986243e-01	-3.777439e-04	1.422169e-01	-1.425946e-01
2             	9.502460e-02	2.712338e-01	-2.553587e-03	9.374781e-02	-9.630139e-02
3             	5.969664e-02	1.739323e-01	-3.681329e-03	5.785598e-02	-6.153731e-02
4             	3.931222e-02	1.160091e-01	-2.985518e-03	3.781946e-02	-4.080498e-02
5             	3.076923e-02	8.737220e-02	-8.746962e-04	3.033188e-02	-3.120658e-02
6             	2.494385e-02	6.599647e-02	1.999886e-03	2.594379e-02	-2.394391e-02
7             	2.150450e-02	5.498335e-02	2.801014e-03	2.290501e-02	-2.010400e-02
8             	2.038100e-02	5.081114e-02	3.156178e-03	2.195909e-02	-1.880291e-02
9             	1.949505e-02	4.889776e-02	2.774144e-03	2.088212e-02	-1.810798e-02
10            	1.739933e-02	4.334927e-02	2.697357e-03	1.874801e-02	-1.605065e-02
11            	1.637474e-02	4.238612e-02	1.691662e-03	1.722057e-02	-1.552891e-02
12            	1.568172e-02	4.128570e-02	1.201695e-03	1.628257e-02	-1.508087e-02
13            	1.517719e-02	4.041152e-02	9.716212e-04	1.566300e-02	-1.469138e-02
14            	1.414870e-02	3.768238e-02	1.045883e-03	1.467164e-02	-1.362576e-02
15            	1.377261e-02	3.729056e-02	7.220520e-04	1.413364e-02	-1.341159e-02
16            	1.343422e-02	3.646472e-02	6.402242e-04	1.375434e-02	-1.311411e-02
17            	1.328500e-02	3.600075e-02	6.722256e-04	1.362111e-02	-1.294889e-02
18            	1.277114e-02	3.455920e-02	7.272986e-04	1.313479e-02	-1.240749e-02
19            	1.230397e-02	3.420224e-02	2.312478e-04	1.241960e-02	-1.218835e-02
20            	1.199984e-02	3.389772e-02	-7.862675e-05	1.196053e-02	-1.203915e-02
21            	1.172218e-02	3.361458e-02	-3.118753e-04	1.156625e-02	-1.187812e-02
22            	1.130961e-02	3.284880e-02	-4.523079e-04	1.108346e-02	-1.153577e-02
23            	1.091095e-02	3.243723e-02	-7.603691e-04	1.053077e-02	-1.129113e-02
24            	1.052885e-02	3.191647e-02	-1.012277e-03	1.002271e-02	-1.103499e-02
25            	1.016220e-02	3.145693e-02	-1.277926e-03	9.523238e-03	-1.080116e-02
26            	9.860426e-03	3.103785e-02	-1.488153e-03	9.116350e-03	-1.060450e-02
27            	9.676448e-03	3.080320e-02	-1.614045e-03	8.869425e-03	-1.048347e-02
28            	9.593921e-03	3.061464e-02	-1.625704e-03	8.781069e-03	-1.040677e-02
29            	9.612655e-03	3.057606e-02	-1.564155e-03	8.830578e-03	-1.039473e-02
30            	9.662805e-03	3.049909e-02	-1.449905e-03	8.937853e-03	-1.038776e-02
31            	9.738722e-03	3.047951e-02	-1.326309e-03	9.075568e-03	-1.040188e-02
32            	9.811850e-03	3.042327e-02	-1.203888e-03	9.209906e-03	-1.041379e-02
33            	9.885018e-03	3.041781e-02	-1.106447e-03	9.331794e-03	-1.043824e-02
34            	9.931138e-03	3.040197e-02	-1.052373e-03	9.404951e-03	-1.045732e-02
35            	9.960889e-03	3.045268e-02	-1.045914e-03	9.437932e-03	-1.048385e-02
36            	9.970392e-03	3.051719e-02	-1.078833e-03	9.430976e-03	-1.050981e-02
37            	9.957974e-03	3.063921e-02	-1.161369e-03	9.377289e-03	-1.053866e-02
38            	9.926231e-03	3.078579e-02	-1.290905e-03	9.280779e-03	-1.057168e-02
39            	9.878443e-03	3.096013e-02	-1.449689e-03	9.153598e-03	-1.060329e-02
40            	9.821409e-03	3.113016e-02	-1.628015e-03	9.007401e-03	-1.063542e-02
41            	9.738117e-03	3.123965e-02	-1.803900e-03	8.836167e-03	-1.064007e-02
42            	9.649885e-03	3.129563e-02	-1.965186e-03	8.667292e-03	-1.063248e-02
43            	9.562684e-03	3.131171e-02	-2.095766e-03	8.514801e-03	-1.061057e-02
44            	9.521420e-03	3.137494e-02	-2.192506e-03	8.425167e-03	-1.061767e-02
45            	9.495264e-03	3.142924e-02	-2.253137e-03	8.368696e-03	-1.062183e-02
46            	9.486593e-03	3.147592e-02	-2.289162e-03	8.342012e-03	-1.063117e-02
47            	9.460846e-03	3.147599e-02	-2.311579e-03	8.305056e-03	-1.061664e-02
48            	9.454532e-03	3.150671e-02	-2.326126e-03	8.291470e-03	-1.061760e-02
49            	9.446064e-03	3.150643e-02	-2.316481e-03	8.287824e-03	-1.060430e-02
50            	9.456249e-03	3.153369e-02	-2.301332e-03	8.305583e-03	-1.060692e-02
51            	9.451560e-03	3.151986e-02	-2.278562e-03	8.312279e-03	-1.059084e-02
52            	9.465818e-03	3.153987e-02	-2.258048e-03	8.336794e-03	-1.059484e-02
53            	9.458079e-03	3.151264e-02	-2.240642e-03	8.337758e-03	-1.057840e-02
54            	9.479800e-03	3.154651e-02	-2.224940e-03	8.367330e-03	-1.059227e-02
55            	9.488966e-03	3.152944e-02	-2.194933e-03	8.391500e-03	-1.058643e-02
56            	9.525514e-03	3.155509e-02	-2.157652e-03	8.446688e-03	-1.060434e-02
57            	9.548112e-03	3.152638e-02	-2.105482e-03	8.495371e-03	-1.060085e-02
58            	9.589330e-03	3.152199e-02	-2.046998e-03	8.565831e-03	-1.061283e-02
59            	9.615268e-03	3.146624e-02	-1.977016e-03	8.626759e-03	-1.060378e-02
60            	9.658372e-03	3.145739e-02	-1.914360e-03	8.701192e-03	-1.061555e-02
61            	9.682184e-03	3.139546e-02	-1.845065e-03	8.759651e-03	-1.060472e-02
62            	9.716615e-03	3.137232e-02	-1.788617e-03	8.822306e-03	-1.061092e-02
63            	9.729983e-03	3.131318e-02	-1.737634e-03	8.861166e-03	-1.059880e-02
64            	9.748675e-03	3.129336e-02	-1.706332e-03	8.895509e-03	-1.060184e-02
65            	9.737679e-03	3.122460e-02	-1.686721e-03	8.894319e-03	-1.058104e-02
66            	9.741814e-03	3.121467e-02	-1.681445e-03	8.901092e-03	-1.058254e-02
67            	9.724384e-03	3.115986e-02	-1.677783e-03	8.885493e-03	-1.056328e-02
68            	9.710504e-03	3.113477e-02	-1.689477e-03	8.865766e-03	-1.055524e-02
69            	9.684870e-03	3.106766e-02	-1.690230e-03	8.839755e-03	-1.052999e-02
70            	9.669035e-03	3.103359e-02	-1.699271e-03	8.819399e-03	-1.051867e-02
71            	9.630896e-03	3.094259e-02	-1.704871e-03	8.778461e-03	-1.048333e-02
72            	9.600875e-03	3.089571e-02	-1.727313e-03	8.737218e-03	-1.046453e-02
73            	9.563215e-03	3.082601e-02	-1.743864e-03	8.691283e-03	-1.043515e-02
74            	9.539298e-03	3.080938e-02	-1.774599e-03	8.651998e-03	-1.042660e-02
75            	9.505862e-03	3.077186e-02	-1.802702e-03	8.604511e-03	-1.040721e-02
76            	9.485773e-03	3.077956e-02	-1.840012e-03	8.565767e-03	-1.040578e-02
77            	9.440794e-03	3.073964e-02	-1.883109e-03	8.499240e-03	-1.038235e-02
78            	9.400864e-03	3.074887e-02	-1.950273e-03	8.425728e-03	-1.037600e-02
79            	9.343747e-03	3.073519e-02	-2.025671e-03	8.330911e-03	-1.035658e-02
80            	9.295802e-03	3.077113e-02	-2.120398e-03	8.235603e-03	-1.035600e-02
81            	9.235233e-03	3.077749e-02	-2.211298e-03	8.129584e-03	-1.034088e-02
82            	9.199623e-03	3.082857e-02	-2.293427e-03	8.052909e-03	-1.034634e-02
83            	9.152193e-03	3.083419e-02	-2.361273e-03	7.971556e-03	-1.033283e-02
84            	9.129162e-03	3.087487e-02	-2.415774e-03	7.921276e-03	-1.033705e-02
85            	9.108828e-03	3.089048e-02	-2.445923e-03	7.885867e-03	-1.033179e-02
86            	9.112827e-03	3.094894e-02	-2.468360e-03	7.878647e-03	-1.034701e-02
87            	9.116699e-03	3.097242e-02	-2.467393e-03	7.883003e-03	-1.035040e-02
88            	9.148976e-03	3.104065e-02	-2.454539e-03	7.921706e-03	-1.037624e-02
89            	9.176335e-03	3.107442e-02	-2.426922e-03	7.962874e-03	-1.038980e-02
90            	9.223454e-03	3.114015e-02	-2.394837e-03	8.026035e-03	-1.042087e-02
91            	9.261673e-03	3.116658e-02	-2.350488e-03	8.086429e-03	-1.043692e-02
92            	9.318822e-03	3.123445e-02	-2.308386e-03	8.164629e-03	-1.047302e-02
93            	9.365536e-03	3.125965e-02	-2.254688e-03	8.238192e-03	-1.049288e-02
94            	9.427612e-03	3.131805e-02	-2.202013e-03	8.326605e-03	-1.052862e-02
95            	9.481674e-03	3.135014e-02	-2.142001e-03	8.410674e-03	-1.055267e-02
96            	9.552086e-03	3.141885e-02	-2.083592e-03	8.510290e-03	-1.059388e-02
97            	9.606636e-03	3.144478e-02	-2.020070e-03	8.596601e-03	-1.061667e-02
98            	9.671427e-03	3.150871e-02	-1.966939e-03	8.687958e-03	-1.065490e-02
99            	9.716874e-03	3.152444e-02	-1.910632e-03	8.761558e-03	-1.067219e-02
100           	9.769574e-03	3.156245e-02	-1.861081e-03	8.839034e-03	-1.070011e-02
101           	9.803534e-03	3.155970e-02	-1.810976e-03	8.898046e-03	-1.070902e-02
102           	9.850655e-03	3.158301e-02	-1.760542e-03	8.970384e-03	-1.073093e-02
103           	9.876652e-03	3.155529e-02	-1.707945e-03	9.022679e-03	-1.073062e-02
104           	9.914597e-03	3.156459e-02	-1.662709e-03	9.083243e-03	-1.074595e-02
105           	9.931481e-03	3.153066e-02	-1.619551e-03	9.121706e-03	-1.074126e-02
106           	9.958075e-03	3.152689e-02	-1.583816e-03	9.166167e-03	-1.074998e-02
107           	9.971640e-03	3.148865e-02	-1.543022e-03	9.200129e-03	-1.074315e-02
108           	1.000142e-02	3.149505e-02	-1.507293e-03	9.247771e-03	-1.075506e-02
109           	1.001417e-02	3.145327e-02	-1.465428e-03	9.281460e-03	-1.074689e-02
110           	1.003723e-02	3.144659e-02	-1.432536e-03	9.320957e-03	-1.075349e-02
111           	1.004626e-02	3.141328e-02	-1.400596e-03	9.345957e-03	-1.074655e-02
112           	1.007014e-02	3.141964e-02	-1.374044e-03	9.383123e-03	-1.075717e-02
113           	1.007008e-02	3.138050e-02	-1.352734e-03	9.393717e-03	-1.074645e-02
114           	1.008693e-02	3.138545e-02	-1.335750e-03	9.419050e-03	-1.075480e-02
115           	1.009162e-02	3.135475e-02	-1.311895e-03	9.435670e-03	-1.074756e-02
116           	1.010087e-02	3.134712e-02	-1.299174e-03	9.451284e-03	-1.075046e-02
117           	1.009176e-02	3.129992e-02	-1.286955e-03	9.448282e-03	-1.073524e-02
118           	1.009677e-02	3.129375e-02	-1.281545e-03	9.456000e-03	-1.073754e-02
119           	1.007682e-02	3.123564e-02	-1.278808e-03	9.437417e-03	-1.071623e-02
120           	1.007390e-02	3.122172e-02	-1.279860e-03	9.433969e-03	-1.071383e-02
121           	1.005664e-02	3.116999e-02	-1.275633e-03	9.418828e-03	-1.069446e-02
122           	1.005204e-02	3.114954e-02	-1.274890e-03	9.414592e-03	-1.068948e-02
123           	1.003116e-02	3.109036e-02	-1.271440e-03	9.395444e-03	-1.066688e-02
124           	1.003120e-02	3.109821e-02	-1.278716e-03	9.391846e-03	-1.067056e-02
125           	1.001701e-02	3.107690e-02	-1.285442e-03	9.374293e-03	-1.065973e-02
126           	1.001673e-02	3.109685e-02	-1.299372e-03	9.367046e-03	-1.066642e-02
127           	1.000732e-02	3.108997e-02	-1.306969e-03	9.353835e-03	-1.066080e-02
128           	1.001635e-02	3.112778e-02	-1.317297e-03	9.357702e-03	-1.067500e-02
129           	1.001007e-02	3.112724e-02	-1.323765e-03	9.348191e-03	-1.067196e-02
130           	1.001703e-02	3.116332e-02	-1.335937e-03	9.349063e-03	-1.068500e-02
131           	1.000898e-02	3.116585e-02	-1.346429e-03	9.335770e-03	-1.068220e-02
132           	1.001410e-02	3.120588e-02	-1.363104e-03	9.332546e-03	-1.069565e-02
133           	1.001122e-02	3.121023e-02	-1.366945e-03	9.327748e-03	-1.069469e-02
134           	1.002746e-02	3.125758e-02	-1.370462e-03	9.342232e-03	-1.071269e-02
135           	1.002978e-02	3.125713e-02	-1.363009e-03	9.348276e-03	-1.071128e-02
136           	1.005177e-02	3.130078e-02	-1.355909e-03	9.373814e-03	-1.072972e-02
137           	1.005956e-02	3.130658e-02	-1.343493e-03	9.387810e-03	-1.073130e-02
138           	1.007984e-02	3.134801e-02	-1.337545e-03	9.411065e-03	-1.074861e-02
139           	1.008838e-02	3.134889e-02	-1.322075e-03	9.427342e-03	-1.074942e-02
140           	1.012104e-02	3.140211e-02	-1.305520e-03	9.468278e-03	-1.077380e-02
141           	1.013823e-02	3.141583e-02	-1.284239e-03	9.496110e-03	-1.078035e-02
142           	1.016971e-02	3.146044e-02	-1.264880e-03	9.537266e-03	-1.080215e-02
143           	1.018856e-02	3.147068e-02	-1.240466e-03	9.568324e-03	-1.080879e-02
144           	1.021700e-02	3.151684e-02	-1.227124e-03	9.603435e-03	-1.083056e-02
145           	1.023175e-02	3.152122e-02	-1.206497e-03	9.628503e-03	-1.083500e-02
146           	1.025745e-02	3.155880e-02	-1.193045e-03	9.660923e-03	-1.085397e-02
147           	1.026790e-02	3.155402e-02	-1.173469e-03	9.681162e-03	-1.085463e-02
148           	1.029531e-02	3.158122e-02	-1.152064e-03	9.719278e-03	-1.087134e-02
149           	1.030207e-02	3.156212e-02	-1.130592e-03	9.736774e-03	-1.086737e-02
150           	1.031855e-02	3.157732e-02	-1.118788e-03	9.759161e-03	-1.087795e-02
151           	1.031824e-02	3.154608e-02	-1.101266e-03	9.767604e-03	-1.086887e-02
152           	1.033156e-02	3.155813e-02	-1.092676e-03	9.785221e-03	-1.087790e-02
153           	1.033000e-02	3.153233e-02	-1.079717e-03	9.790144e-03	-1.086986e-02
154           	1.034528e-02	3.154155e-02	-1.066213e-03	9.812174e-03	-1.087839e-02
155           	1.034401e-02	3.150094e-02	-1.044765e-03	9.821623e-03	-1.086639e-02
156           	1.035377e-02	3.150497e-02	-1.036774e-03	9.835381e-03	-1.087215e-02
157           	1.035059e-02	3.147424e-02	-1.023694e-03	9.838746e-03	-1.086244e-02
158           	1.036050e-02	3.148430e-02	-1.018552e-03	9.851223e-03	-1.086977e-02
159           	1.035203e-02	3.145434e-02	-1.013264e-03	9.845401e-03	-1.085866e-02
160           	1.036171e-02	3.146465e-02	-1.008409e-03	9.857506e-03	-1.086591e-02
161           	1.035936e-02	3.143622e-02	-9.949894e-04	9.861865e-03	-1.085685e-02
162           	1.036738e-02	3.144407e-02	-9.906640e-04	9.872044e-03	-1.086271e-02
163           	1.035712e-02	3.140610e-02	-9.831604e-04	9.865539e-03	-1.084870e-02
164           	1.035946e-02	3.141015e-02	-9.852733e-04	9.866824e-03	-1.085210e-02
165           	1.034550e-02	3.137650e-02	-9.853427e-04	9.852828e-03	-1.083817e-02
166           	1.034719e-02	3.137856e-02	-9.869467e-04	9.853719e-03	-1.084067e-02
167           	1.033306e-02	3.133227e-02	-9.800113e-04	9.843055e-03	-1.082307e-02
168           	1.033122e-02	3.132704e-02	-9.823225e-04	9.840063e-03	-1.082238e-02
169           	1.031337e-02	3.127634e-02	-9.784923e-04	9.824122e-03	-1.080261e-02
170           	1.030891e-02	3.126765e-02	-9.827218e-04	9.817554e-03	-1.080028e-02
171           	1.028751e-02	3.122466e-02	-9.877518e-04	9.793638e-03	-1.078139e-02
172           	1.028684e-02	3.123054e-02	-9.944183e-04	9.789626e-03	-1.078404e-02
173           	1.027335e-02	3.119889e-02	-9.939693e-04	9.776369e-03	-1.077034e-02
174           	1.027599e-02	3.121163e-02	-9.986932e-04	9.776643e-03	-1.077534e-02
175           	1.026869e-02	3.118981e-02	-9.945391e-04	9.771417e-03	-1.076596e-02
176           	1.027132e-02	3.120346e-02	-1.000485e-03	9.771077e-03	-1.077156e-02
177           	1.026195e-02	3.119137e-02	-1.004866e-03	9.759519e-03	-1.076438e-02
178           	1.027484e-02	3.123231e-02	-1.010297e-03	9.769696e-03	-1.077999e-02
179           	1.026803e-02	3.122487e-02	-1.013295e-03	9.761384e-03	-1.077468e-02
180           	1.027751e-02	3.125408e-02	-1.017487e-03	9.768765e-03	-1.078625e-02
181           	1.028025e-02	3.124986e-02	-1.008485e-03	9.776003e-03	-1.078449e-02
182           	1.029446e-02	3.127898e-02	-1.005813e-03	9.791552e-03	-1.079736e-02
183           	1.028963e-02	3.125987e-02	-9.995742e-04	9.789847e-03	-1.078942e-02
184           	1.030499e-02	3.129833e-02	-1.000262e-03	9.804855e-03	-1.080512e-02
185           	1.030612e-02	3.129162e-02	-9.922761e-04	9.809985e-03	-1.080226e-02
186           	1.031809e-02	3.131656e-02	-9.905114e-04	9.822837e-03	-1.081335e-02
187           	1.032373e-02	3.130377e-02	-9.723197e-04	9.837571e-03	-1.080989e-02
188           	1.034159e-02	3.132550e-02	-9.603225e-04	9.861429e-03	-1.082175e-02
189           	1.034018e-02	3.130171e-02	-9.468210e-04	9.866766e-03	-1.081359e-02
190           	1.035603e-02	3.132622e-02	-9.394059e-04	9.886330e-03	-1.082574e-02
191           	1.035442e-02	3.130675e-02	-9.288745e-04	9.889983e-03	-1.081886e-02
192           	1.036348e-02	3.132040e-02	-9.262980e-04	9.900334e-03	-1.082663e-02
193           	1.036431e-02	3.129803e-02	-9.113136e-04	9.908651e-03	-1.081997e-02
194           	1.037965e-02	3.131913e-02	-9.029700e-04	9.928166e-03	-1.083114e-02
195           	1.037306e-02	3.128200e-02	-8.909177e-04	9.927598e-03	-1.081852e-02
196           	1.038050e-02	3.128934e-02	-8.875823e-04	9.936710e-03	-1.082429e-02
197           	1.037510e-02	3.126382e-02	-8.806341e-04	9.934786e-03	-1.081542e-02
198           	1.037694e-02	3.127214e-02	-8.862104e-04	9.933833e-03	-1.082004e-02
199           	1.036678e-02	3.124254e-02	-8.837009e-04	9.924925e-03	-1.080863e-02
200           	1.037564e-02	3.126047e-02	-8.834318e-04	9.933928e-03	-1.081736e-02
201           	1.036494e-02	3.122501e-02	-8.778395e-04	9.926024e-03	-1.080386e-02
202           	1.036829e-02	3.123031e-02	-8.790015e-04	9.928790e-03	-1.080779e-02
203           	1.035658e-02	3.120074e-02	-8.779600e-04	9.917605e-03	-1.079556e-02
204           	1.035605e-02	3.121135e-02	-8.873673e-04	9.912365e-03	-1.079973e-02
205           	1.034542e-02	3.118595e-02	-8.871464e-04	9.901851e-03	-1.078900e-02
206           	1.034948e-02	3.120606e-02	-8.940760e-04	9.902438e-03	-1.079651e-02
207           	1.033861e-02	3.117747e-02	-8.916453e-04	9.892789e-03	-1.078443e-02
208           	1.034477e-02	3.118988e-02	-8.918198e-04	9.898857e-03	-1.079068e-02
209           	1.033630e-02	3.116384e-02	-8.875003e-04	9.892545e-03	-1.078005e-02
210           	1.033752e-02	3.117897e-02	-8.960389e-04	9.889499e-03	-1.078554e-02
211           	1.032801e-02	3.115723e-02	-8.956464e-04	9.880191e-03	-1.077584e-02
212           	1.033595e-02	3.118482e-02	-9.013649e-04	9.885269e-03	-1.078663e-02
213           	1.032882e-02	3.116956e-02	-9.005860e-04	9.878527e-03	-1.077911e-02
214           	1.034029e-02	3.119040e-02	-8.974223e-04	9.891580e-03	-1.078900e-02
215           	1.033481e-02	3.117043e-02	-8.922184e-04	9.888702e-03	-1.078092e-02
216           	1.034226e-02	3.119403e-02	-8.965523e-04	9.893987e-03	-1.079054e-02
217           	1.033737e-02	3.118301e-02	-8.951509e-04	9.889790e-03	-1.078494e-02
218           	1.034569e-02	3.120963e-02	-8.998979e-04	9.895739e-03	-1.079564e-02
219           	1.034047e-02	3.119436e-02	-8.965535e-04	9.892190e-03	-1.078874e-02
220           	1.035344e-02	3.122142e-02	-8.946077e-04	9.906135e-03	-1.080074e-02
221           	1.035150e-02	3.120453e-02	-8.855531e-04	9.908723e-03	-1.079428e-02
222           	1.036060e-02	3.122578e-02	-8.861080e-04	9.917543e-03	-1.080365e-02
223           	1.035589e-02	3.120499e-02	-8.789775e-04	9.916400e-03	-1.079538e-02
224           	1.036497e-02	3.123159e-02	-8.827620e-04	9.923587e-03	-1.080635e-02
225           	1.035938e-02	3.121631e-02	-8.802610e-04	9.919250e-03	-1.079951e-02
226           	1.037103e-02	3.124177e-02	-8.792871e-04	9.931386e-03	-1.081067e-02
227           	1.036744e-02	3.122521e-02	-8.725347e-04	9.931177e-03	-1.080371e-02
228           	1.037728e-02	3.124514e-02	-8.714809e-04	9.941535e-03	-1.081302e-02
229           	1.037163e-02	3.122194e-02	-8.648077e-04	9.939225e-03	-1.080403e-02
230           	1.037857e-02	3.123939e-02	-8.665097e-04	9.945318e-03	-1.081183e-02
231           	1.037111e-02	3.122292e-02	-8.659171e-04	9.938153e-03	-1.080407e-02
232           	1.038222e-02	3.124683e-02	-8.650951e-04	9.949670e-03	-1.081477e-02
233           	1.037831e-02	3.122946e-02	-8.586980e-04	9.948960e-03	-1.080766e-02
234           	1.038736e-02	3.124915e-02	-8.581943e-04	9.958261e-03	-1.081646e-02
235           	1.038119e-02	3.122025e-02	-8.492216e-04	9.956581e-03	-1.080580e-02
236           	1.038858e-02	3.123787e-02	-8.505948e-04	9.963286e-03	-1.081388e-02
237           	1.037939e-02	3.121825e-02	-8.508310e-04	9.953974e-03	-1.080481e-02
238           	1.038828e-02	3.124095e-02	-8.528134e-04	9.961875e-03	-1.081469e-02
239           	1.037920e-02	3.121603e-02	-8.498738e-04	9.954262e-03	-1.080414e-02
240           	1.038779e-02	3.123711e-02	-8.510964e-04	9.962239e-03	-1.081334e-02
241           	1.038444e-02	3.121581e-02	-8.421945e-04	9.963340e-03	-1.080553e-02
242           	1.038940e-02	3.123022e-02	-8.452554e-04	9.966773e-03	-1.081203e-02
243           	1.038018e-02	3.121059e-02	-8.453104e-04	9.957527e-03	-1.080284e-02
244           	1.038761e-02	3.123521e-02	-8.506093e-04	9.962308e-03	-1.081292e-02
245           	1.038057e-02	3.121697e-02	-8.487499e-04	9.956200e-03	-1.080495e-02
246           	1.038643e-02	3.123427e-02	-8.519241e-04	9.960468e-03	-1.081239e-02
247           	1.038153e-02	3.121371e-02	-8.454623e-04	9.958796e-03	-1.080426e-02
248           	1.038927e-02	3.123124e-02	-8.460995e-04	9.966221e-03	-1.081232e-02
249           	1.038119e-02	3.121198e-02	-8.448370e-04	9.958774e-03	-1.080361e-02
250           	1.038562e-02	3.123415e-02	-8.527144e-04	9.959261e-03	-1.081198e-02
251           	1.037633e-02	3.121308e-02	-8.526702e-04	9.949995e-03	-1.080267e-02
252           	1.038281e-02	3.123569e-02	-8.578226e-04	9.953900e-03	-1.081172e-02
253           	1.038085e-02	3.122576e-02	-8.525074e-04	9.954597e-03	-1.080710e-02
254           	1.038808e-02	3.124538e-02	-8.545802e-04	9.960790e-03	-1.081537e-02
255           	1.037789e-02	3.121777e-02	-8.516850e-04	9.952049e-03	-1.080373e-02
256           	1.038547e-02	3.124199e-02	-8.563924e-04	9.957272e-03	-1.081366e-02
257           	1.037694e-02	3.122457e-02	-8.569432e-04	9.948464e-03	-1.080541e-02
258           	1.038402e-02	3.124687e-02	-8.609986e-04	9.953516e-03	-1.081451e-02
259           	1.037859e-02	3.123053e-02	-8.570281e-04	9.950072e-03	-1.080710e-02
260           	1.039043e-02	3.125381e-02	-8.545444e-04	9.963160e-03	-1.081770e-02
261           	1.038235e-02	3.122823e-02	-8.501220e-04	9.957294e-03	-1.080742e-02
262           	1.039087e-02	3.124753e-02	-8.507756e-04	9.965487e-03	-1.081626e-02
263           	1.038137e-02	3.122812e-02	-8.515049e-04	9.955621e-03	-1.080713e-02
264           	1.038531e-02	3.124844e-02	-8.593671e-04	9.955626e-03	-1.081499e-02
265           	1.037797e-02	3.123028e-02	-8.581962e-04	9.948875e-03	-1.080707e-02
266           	1.038780e-02	3.125043e-02	-8.573380e-04	9.959133e-03	-1.081647e-02
267           	1.037927e-02	3.122681e-02	-8.540217e-04	9.952258e-03	-1.080628e-02
268           	1.038493e-02	3.124139e-02	-8.563758e-04	9.956739e-03	-1.081312e-02
269           	1.037771e-02	3.122626e-02	-8.560913e-04	9.949666e-03	-1.080576e-02
270           	1.037871e-02	3.124159e-02	-8.653467e-04	9.946035e-03	-1.081138e-02
271           	1.036950e-02	3.121814e-02	-8.637526e-04	9.937619e-03	-1.080137e-02
272           	1.037680e-02	3.124254e-02	-8.688313e-04	9.942386e-03	-1.081122e-02
273           	1.037127e-02	3.122115e-02	-8.625927e-04	9.939969e-03	-1.080256e-02
274           	1.037591e-02	3.123362e-02	-8.650296e-04	9.943397e-03	-1.080843e-02
275           	1.036543e-02	3.120601e-02	-8.627640e-04	9.934048e-03	-1.079681e-02
276           	1.036967e-02	3.122715e-02	-8.702355e-04	9.934557e-03	-1.080479e-02
277           	1.035865e-02	3.120529e-02	-8.722913e-04	9.922509e-03	-1.079480e-02
278           	1.036621e-02	3.122490e-02	-8.747973e-04	9.928816e-03	-1.080361e-02
279           	1.035649e-02	3.120299e-02	-8.741381e-04	9.919417e-03	-1.079355e-02
280           	1.036515e-02	3.122135e-02	-8.739384e-04	9.928180e-03	-1.080212e-02
281           	1.035808e-02	3.119907e-02	-8.698445e-04	9.923153e-03	-1.079300e-02
282           	1.036145e-02	3.121592e-02	-8.762284e-04	9.923336e-03	-1.079956e-02
283           	1.035075e-02	3.119037e-02	-8.759718e-04	9.912764e-03	-1.078874e-02
284           	1.035638e-02	3.121163e-02	-8.822278e-04	9.915263e-03	-1.079749e-02
285           	1.034830e-02	3.119210e-02	-8.809554e-04	9.907823e-03	-1.078878e-02
286           	1.035525e-02	3.121117e-02	-8.832108e-04	9.913649e-03	-1.079686e-02
287           	1.034970e-02	3.119069e-02	-8.777420e-04	9.910831e-03	-1.078857e-02
288           	1.035532e-02	3.120519e-02	-8.799524e-04	9.915339e-03	-1.079529e-02
289           	1.034500e-02	3.118071e-02	-8.795055e-04	9.905245e-03	-1.078475e-02
290           	1.034974e-02	3.120291e-02	-8.873331e-04	9.906076e-03	-1.079341e-02
291           	1.033987e-02	3.118238e-02	-8.879370e-04	9.895904e-03	-1.078384e-02
292           	1.034804e-02	3.120806e-02	-8.922124e-04	9.901937e-03	-1.079415e-02
293           	1.034501e-02	3.119040e-02	-8.844549e-04	9.902785e-03	-1.078724e-02
294           	1.034970e-02	3.120554e-02	-8.882645e-04	9.905568e-03	-1.079383e-02
295           	1.034102e-02	3.118020e-02	-8.847210e-04	9.898655e-03	-1.078338e-02
296           	1.034727e-02	3.120478e-02	-8.913491e-04	9.901597e-03	-1.079295e-02
297           	1.034136e-02	3.119110e-02	-8.899297e-04	9.896400e-03	-1.078633e-02
298           	1.034765e-02	3.121001e-02	-8.934144e-04	9.900943e-03	-1.079436e-02
299           	1.034272e-02	3.118994e-02	-8.869134e-04	9.899261e-03	-1.078617e-02
300           	1.035336e-02	3.120971e-02	-8.846339e-04	9.911042e-03	-1.079568e-02
301           	1.034695e-02	3.118838e-02	-8.800468e-04	9.906930e-03	-1.078698e-02
302           	1.035483e-02	3.120841e-02	-8.816828e-04	9.913989e-03	-1.079567e-02
303           	1.034528e-02	3.119102e-02	-8.837938e-04	9.903382e-03	-1.078718e-02
304           	1.035525e-02	3.121637e-02	-8.858783e-04	9.912314e-03	-1.079819e-02
305           	1.034949e-02	3.119964e-02	-8.829550e-04	9.908009e-03	-1.079096e-02
306           	1.035957e-02	3.122052e-02	-8.819536e-04	9.918589e-03	-1.080054e-02
307           	1.035568e-02	3.120132e-02	-8.746334e-04	9.918360e-03	-1.079299e-02
308           	1.036128e-02	3.121986e-02	-8.790564e-04	9.921750e-03	-1.080081e-02
309           	1.035272e-02	3.120168e-02	-8.791561e-04	9.913138e-03	-1.079229e-02
310           	1.036001e-02	3.122129e-02	-8.820621e-04	9.918980e-03	-1.080104e-02
311           	1.035301e-02	3.120054e-02	-8.785434e-04	9.913739e-03	-1.079228e-02
312           	1.036403e-02	3.123021e-02	-8.806141e-04	9.923725e-03	-1.080434e-02
313           	1.036141e-02	3.121174e-02	-8.716475e-04	9.925586e-03	-1.079723e-02
314           	1.036700e-02	3.122298e-02	-8.721198e-04	9.930944e-03	-1.080306e-02
315           	1.035815e-02	3.120075e-02	-8.705040e-04	9.922901e-03	-1.079341e-02
316           	1.036673e-02	3.122545e-02	-8.742168e-04	9.929626e-03	-1.080384e-02
317           	1.035917e-02	3.120667e-02	-8.727747e-04	9.922778e-03	-1.079555e-02
318           	1.036758e-02	3.122883e-02	-8.748615e-04	9.930148e-03	-1.080501e-02
319           	1.036654e-02	3.121747e-02	-8.673115e-04	9.932884e-03	-1.080020e-02
320           	1.037617e-02	3.123519e-02	-8.654640e-04	9.943437e-03	-1.080890e-02
321           	1.036742e-02	3.120958e-02	-8.622270e-04	9.936310e-03	-1.079854e-02
322           	1.037443e-02	3.123207e-02	-8.666079e-04	9.941123e-03	-1.080773e-02
323           	1.036600e-02	3.121611e-02	-8.677261e-04	9.932136e-03	-1.079986e-02
324           	1.037367e-02	3.123791e-02	-8.710599e-04	9.938143e-03	-1.080920e-02
325           	1.036911e-02	3.122436e-02	-8.677577e-04	9.935230e-03	-1.080299e-02
326           	1.038003e-02	3.124012e-02	-8.630393e-04	9.948510e-03	-1.081155e-02
327           	1.036975e-02	3.121257e-02	-8.604135e-04	9.939539e-03	-1.079995e-02
328           	1.038028e-02	3.124017e-02	-8.624560e-04	9.949053e-03	-1.081151e-02
329           	1.037190e-02	3.122134e-02	-8.620995e-04	9.940851e-03	-1.080295e-02
330           	1.037627e-02	3.124104e-02	-8.689613e-04	9.941788e-03	-1.081075e-02
331           	1.037124e-02	3.122283e-02	-8.641834e-04	9.939152e-03	-1.080334e-02
332           	1.038230e-02	3.124722e-02	-8.637511e-04	9.950422e-03	-1.081417e-02
333           	1.037646e-02	3.122577e-02	-8.581061e-04	9.947402e-03	-1.080551e-02
334           	1.038314e-02	3.124328e-02	-8.602651e-04	9.953011e-03	-1.081328e-02
335           	1.037353e-02	3.122021e-02	-8.592105e-04	9.943920e-03	-1.080313e-02
336           	1.037755e-02	3.123654e-02	-8.652366e-04	9.944932e-03	-1.081017e-02
337           	1.037088e-02	3.122045e-02	-8.643071e-04	9.938722e-03	-1.080303e-02
338           	1.037979e-02	3.124549e-02	-8.669877e-04	9.946296e-03	-1.081328e-02
339           	1.037270e-02	3.122416e-02	-8.628510e-04	9.941275e-03	-1.080413e-02
340           	1.038040e-02	3.123941e-02	-8.626556e-04	9.949071e-03	-1.081173e-02
341           	1.037064e-02	3.121769e-02	-8.629433e-04	9.939170e-03	-1.080211e-02
342           	1.037251e-02	3.123519e-02	-8.719767e-04	9.936523e-03	-1.080850e-02
343           	1.036290e-02	3.121588e-02	-8.729911e-04	9.926407e-03	-1.079940e-02
344           	1.037050e-02	3.124286e-02	-8.790729e-04	9.930959e-03	-1.081003e-02
345           	1.036387e-02	3.122265e-02	-8.747705e-04	9.926485e-03	-1.080126e-02
346           	1.036950e-02	3.123880e-02	-8.773006e-04	9.930854e-03	-1.080816e-02
347           	1.036176e-02	3.121122e-02	-8.712217e-04	9.926148e-03	-1.079737e-02
348           	1.036518e-02	3.122677e-02	-8.770469e-04	9.926659e-03	-1.080371e-02
349           	1.035628e-02	3.120768e-02	-8.770518e-04	9.917756e-03	-1.079481e-02
350           	1.036409e-02	3.123331e-02	-8.817886e-04	9.923198e-03	-1.080499e-02
351           	1.035513e-02	3.121248e-02	-8.806575e-04	9.914800e-03	-1.079546e-02
352           	1.036373e-02	3.123063e-02	-8.803267e-04	9.923565e-03	-1.080389e-02
353           	1.035657e-02	3.120749e-02	-8.758580e-04	9.918639e-03	-1.079450e-02
354           	1.036264e-02	3.122099e-02	-8.770154e-04	9.924132e-03	-1.080115e-02
355           	1.035138e-02	3.119940e-02	-8.790517e-04	9.911858e-03	-1.079091e-02
356           	1.035725e-02	3.122204e-02	-8.853942e-04	9.914555e-03	-1.079995e-02
357           	1.035032e-02	3.120400e-02	-8.835415e-04	9.908548e-03	-1.079209e-02
358           	1.035693e-02	3.122223e-02	-8.861964e-04	9.913831e-03	-1.080003e-02
359           	1.035096e-02	3.120014e-02	-8.805167e-04	9.910698e-03	-1.079121e-02