# vtk DataFile Version 2.0
tracks
ASCII
DATASET POLYDATA
POINTS 2585 float
-1.001 -0.05 0.0011 -0.900789 -0.0500216 0.00109731 -0.800577 -0.0500431 0.00109463 -0.700366 -0.0500646
0.00109196 -0.600155 -0.050086 0.00108929 -0.499943 -0.0501073 0.00108663 -0.424945 -0.0501113 0.00107893
-0.349947 -0.0501522 0.00106881 -0.274949 -0.0501927 0.00105879 -0.19995 -0.0502329 0.00104886 -0.124952
-0.0502727 0.00103903 -0.0499538 -0.0502822 0.00103927 0.0250446 -0.0502909 0.00104801 0.100043 -0.0502998
0.00105682 0.175041 -0.0503087 0.00106571 0.25004 -0.0503177 0.00107467 0.400037 -0.0503116 0.00109077
0.550035 -0.0503097 0.00110501 0.700032 -0.0503077 0.00111943 0.85003 -0.0503057 0.00113404 1.00003
-0.0503037 0.00114884 1.15003 -0.0503143 0.00115605 1.30002 -0.0503199 0.00116054 1.45002 -0.0503256
0.00116505 1.60002 -0.0503312 0.00116957 1.75002 -0.0503369 0.00117411 1.90002 -0.0503454 0.00117698
2.05002 -0.0503518 0.00117892 2.20001 -0.0503582 0.00118086 2.35001 -0.0503646 0.0011828 2.50001
-0.050371 0.00118475 2.65001 -0.050379 0.0011858 2.80001 -0.050387 0.0011865 2.95001 -0.050395
0.00118719 3.10001 -0.050403 0.00118789 3.25001 -0.050411 0.00118858 3.40001 -0.0504188 0.00118887
3.55001 -0.0504275 0.00118944 3.70001 -0.0504363 0.00119002 3.85001 -0.050445 0.0011906 4.00001
-0.0504538 0.00119118 4.15 -0.0504615 0.00119126 4.3 -0.050471 0.00119193 4.45 -0.0504805
0.0011926 4.6 -0.0504901 0.00119328 4.75 -0.0504996 0.00119395 4.9 -0.0505072 0.00119395
5.05 -0.0505172 0.00119478 5.2 -0.0505272 0.0011956 5.35 -0.0505373 0.00119643 5.5
-0.0505473 0.00119726 5.65 -0.0505548 0.00119722 5.8 -0.0505651 0.00119821 5.95 -0.0505755
0.00119919 6.1 -0.0505858 0.00120018 6.25 -0.0505961 0.00120117 6.4 -0.0506036 0.0012011
6.55 -0.0506141 0.00120222 6.7 -0.0506246 0.00120334 6.85 -0.0506352 0.00120446 7
-0.0506458 0.00120558 7.15 -0.0506531 0.00120549 7.3 -0.0506638 0.00120672 7.45 -0.0506745
0.00120795 7.6 -0.0506852 0.00120918 7.75 -0.0506959 0.00121041 7.9 -0.0507032 0.0012103
8.05 -0.050714 0.00121162 8.2 -0.0507248 0.00121293 8.35 -0.0507357 0.00121425 8.5
-0.0507465 0.00121557 8.65 -0.0507537 0.00121546 8.8 -0.0507646 0.00121685 8.95 -0.0507755
0.00121825 9.1 -0.0507864 0.00121964 9.25 -0.0507973 0.00122104 9.4 -0.0508045 0.00122091
9.55 -0.0508612 0.001223 9.7 -0.0509689 0.0012258 9.85 -0.0511277 0.0012293 10
-0.0513374 0.00123352 -1.001 -0.05 0.0537316 -0.900807 -0.0501061 0.0535764 -0.800614 -0.0502124
0.0533939 -0.700421 -0.0503423 0.0531778 -0.600229 -0.0505031 0.0529259 -0.500035 -0.0506949 0.0526385
-0.425004 -0.050943 0.0524161 -0.349973 -0.0512806 0.0521267 -0.274943 -0.0516654 0.0518582 -0.199912
-0.0520839 0.0516321 -0.124879 -0.0524866 0.0514885 -0.0498864 -0.052753 0.0515254 0.0251065 -0.0529729
0.0516913 0.100099 -0.053188 0.0519256 0.175092 -0.0534124 0.0522082 0.250087 -0.0536318 0.0525259
0.400077 -0.0540169 0.0531619 0.550067 -0.0543995 0.0536772 0.700057 -0.0547407 0.0541438 0.850047
-0.0550407 0.0545613 1.00003 -0.0553073 0.0549291 1.14687 -0.0556742 0.0552077 1.2937 -0.0560096
0.0554675 1.44053 -0.0563423 0.0556936 1.58736 -0.0566723 0.055886 1.70468 -0.0569339 0.0560126
1.71375 -0.0569549 0.0560211 1.72282 -0.056976 0.0560294 1.73188 -0.0569972 0.0560377 1.74095
-0.0570185 0.0560459 1.75002 -0.0570399 0.0560541 1.90002 -0.0573955 0.0561873 2.05002 -0.0577467
0.0563032 2.20001 -0.0580941 0.0564016 2.35001 -0.0584376 0.0564823 2.50001 -0.0587773 0.0565453
2.65001 -0.0591222 0.0565973 2.80001 -0.0594667 0.0566425 2.95001 -0.0598103 0.0566801 3.10001
-0.0601531 0.05671 3.25001 -0.0604951 0.0567322 3.40001 -0.0608382 0.0567493 3.55001 -0.0611825
0.0567657 3.70001 -0.0615254 0.0567801 3.85001 -0.0618667 0.0567924 4.00001 -0.0622066 0.0568028
4.15 -0.0625444 0.0568106 4.3 -0.0628858 0.0568196 4.45 -0.0632258 0.0568277 4.6
-0.0635643 0.0568351 4.75 -0.0639013 0.0568417 4.9 -0.0642336 0.0568461 5.05 -0.0645712
0.0568524 5.2 -0.0649074 0.0568583 5.35 -0.0652422 0.0568638 5.5 -0.0655756 0.056869
5.65 -0.0659024 0.0568715 5.8 -0.0662355 0.0568766 5.95 -0.0665674 0.0568814 6.1
-0.0668981 0.0568861 6.25 -0.0672275 0.0568904 6.4 -0.067549 0.0568919 6.55 -0.0678777
0.0568963 6.7 -0.0682051 0.0569005 6.85 -0.0685313 0.0569046 7 -0.0688563 0.0569086
7.15 -0.0691727 0.0569092 7.3 -0.0694967 0.0569132 7.45 -0.0698196 0.0569171 7.6
-0.0701412 0.0569209 7.75 -0.0704617 0.0569245 7.9 -0.070773 0.0569247 8.05 -0.0710923
0.0569284 8.2 -0.0714104 0.0569322 8.35 -0.0717274 0.0569359 8.5 -0.0720433 0.0569395
8.65 -0.0723495 0.0569396 8.8 -0.0726641 0.0569433 8.95 -0.0729774 0.056947 9.1
-0.0732896 0.0569505 9.25 -0.0736006 0.0569539 9.4 -0.0739017 0.0569535 9.55 -0.0742118
0.056957 9.7 -0.0745214 0.0569605 9.85 -0.0748304 0.0569639 10 -0.075139 0.0569673
-1.001 -0.05 0.106363 -0.900818 -0.050078 0.106138 -0.800636 -0.0501538 0.105865 -0.700455
-0.0502562 0.105546 -0.600274 -0.0504289 0.105004 -0.50009 -0.0506716 0.104242 -0.424996 -0.0509587
0.103656 -0.349901 -0.0513072 0.103051 -0.274807 -0.05166 0.102514 -0.199711 -0.0519583 0.102085
-0.124607 -0.0523006 0.101983 -0.0496047 -0.0525484 0.102096 0.0253974 -0.0527412 0.102326 0.100399
-0.052921 0.102638 0.175401 -0.053121 0.103036 0.250411 -0.0533411 0.103518 0.400346 -0.0537464
0.104518 0.550283 -0.05415 0.105391 0.70022 -0.0545147 0.106175 0.850157 -0.0548485 0.106794
1.00009 -0.0551514 0.107244 1.15007 -0.0555899 0.10751 1.30006 -0.0558846 0.107806 1.45005
-0.0561285 0.108083 1.60003 -0.0563664 0.108326 1.75002 -0.0565984 0.108537 1.90002 -0.0569046
0.108682 2.05002 -0.0571472 0.108837 2.20001 -0.057384 0.108976 2.35001 -0.0576183 0.109098
2.50001 -0.0578501 0.109203 2.65001 -0.0581386 0.109272 2.80001 -0.0583848 0.10934 2.95001
-0.0586298 0.1094 3.10001 -0.0588741 0.109453 3.25001 -0.0591177 0.109498 3.40001 -0.0594046
0.109532 3.55001 -0.0596548 0.109566 3.70001 -0.0599031 0.109597 3.85001 -0.0601498 0.109627
4 -0.0603949 0.109654 4.15 -0.0606757 0.10968 4.3 -0.0609259 0.109701 4.45
-0.0611743 0.109722 4.6 -0.061421 0.109742 4.75 -0.0616663 0.109761 4.9 -0.0619406
0.109784 5.05 -0.0621889 0.109799 5.2 -0.0624355 0.109814 5.35 -0.0626807 0.109828
5.5 -0.0629244 0.109842 5.65 -0.0631924 0.109863 5.8 -0.0634381 0.109874 5.95
-0.0636823 0.109885 6.1 -0.0639253 0.109896 6.25 -0.0641669 0.109906 6.4 -0.0644289
0.109926 6.55 -0.0646718 0.109934 6.7 -0.0649133 0.109941 6.85 -0.0651535 0.109949
7 -0.0653926 0.109956 7.15 -0.0656487 0.109975 7.3 -0.0658884 0.10998 7.45
-0.0661269 0.109986 7.6 -0.0663641 0.109991 7.75 -0.0666002 0.109996 7.9 -0.0668506
0.110014 8.05 -0.0670871 0.110018 8.2 -0.0673223 0.110022 8.35 -0.0675563 0.110025
8.5 -0.0677892 0.110029 8.65 -0.0680342 0.110046 8.8 -0.0682672 0.110049 8.95
-0.0684988 0.110052 9.1 -0.0687293 0.110054 9.25 -0.0689586 0.110056 9.4 -0.0691979
0.110073 9.55 -0.0694275 0.110074 9.7 -0.0696566 0.110075 9.85 -0.0698851 0.110076
10 -0.0701132 0.110077 -1.001 -0.05 0.158995 -0.900796 -0.0500885 0.15877 -0.800593
-0.0501929 0.158424 -0.700392 -0.0503545 0.157687 -0.600196 -0.0505863 0.156474 -0.499992 -0.0508798
0.154633 -0.42472 -0.0514872 0.15303 -0.349437 -0.051955 0.15211 -0.274149 -0.0523521 0.151547
-0.198859 -0.0527471 0.151255 -0.123699 -0.0530641 0.151309 -0.0487805 -0.0531864 0.151472 0.0261371
-0.0532636 0.151953 0.101053 -0.0534018 0.152658 0.175968 -0.0535667 0.153457 0.250944 -0.0537188
0.154285 0.400783 -0.0539269 0.155707 0.550624 -0.0544299 0.156885 0.700468 -0.0548986 0.15764
0.850313 -0.0552936 0.158239 1.00014 -0.0556575 0.158671 1.15012 -0.0561579 0.158917 1.30009
-0.0565139 0.159195 1.45007 -0.0567771 0.159463 1.60005 -0.0569637 0.159718 1.75002 -0.0571446
0.15994 1.90002 -0.0574006 0.160095 2.05002 -0.0575925 0.160261 2.20002 -0.0577724 0.160413
2.35001 -0.0579435 0.160549 2.50001 -0.0581123 0.160669 2.65001 -0.0583382 0.160753 2.80001
-0.0585217 0.160835 2.95001 -0.0587029 0.16091 3.10001 -0.0588826 0.160978 3.25001 -0.0590616
0.161039 3.40001 -0.0592839 0.161089 3.55001 -0.0594697 0.161138 3.70001 -0.0596527 0.161186
3.85001 -0.0598334 0.161232 4 -0.0600126 0.161276 4.15 -0.0602274 0.161318 4.3
-0.0604117 0.161356 4.45 -0.0605935 0.161394 4.6 -0.0607731 0.16143 4.75 -0.0609512
0.161467 4.9 -0.0611581 0.161506 5.05 -0.0613393 0.161538 5.2 -0.0615182 0.16157
5.35 -0.0616952 0.161602 5.5 -0.0618709 0.161633 5.65 -0.0620704 0.161671 5.8
-0.062248 0.161699 5.95 -0.0624237 0.161727 6.1 -0.0625977 0.161755 6.25 -0.0627704
0.161782 6.4 -0.062963 0.161819 6.55 -0.063137 0.161844 6.7 -0.0633091 0.161869
6.85 -0.0634797 0.161894 7 -0.0636492 0.161918 7.15 -0.0638352 0.161953 7.3
-0.0640053 0.161976 7.45 -0.0641738 0.161999 7.6 -0.0643408 0.162021 7.75 -0.0645067
0.162043 7.9 -0.0646866 0.162077 8.05 -0.0648528 0.162098 8.2 -0.0650176 0.162119
8.35 -0.065181 0.16214 8.5 -0.0653433 0.16216 8.65 -0.0655172 0.162194 8.8
-0.0656795 0.162214 8.95 -0.0658402 0.162233 9.1 -0.0659995 0.162252 9.25 -0.0661577
0.162271 9.4 -0.0663255 0.162304 9.55 -0.066484 0.162322 9.7 -0.0666416 0.162339
9.85 -0.0667986 0.162356 10 -0.066955 0.162373 -1.001 -0.05 0.211626 -0.947629
-0.0500806 0.211469 -0.894258 -0.0501657 0.211278 -0.840887 -0.0502554 0.211054 -0.787517 -0.0503896
0.210763 -0.724292 -0.0506334 0.210285 -0.679419 -0.0509111 0.209634 -0.634551 -0.0512461 0.208755
-0.589685 -0.051585 0.207739 -0.544823 -0.0519289 0.206585 -0.499928 -0.0522792 0.205292 -0.46946
-0.0525731 0.204239 -0.438993 -0.0528772 0.203123 -0.408522 -0.0531658 0.202134 -0.378047 -0.05344
0.201267 -0.329836 -0.0538585 0.200029 -0.288829 -0.0541985 0.199122 -0.247817 -0.0545382 0.19843
-0.206802 -0.054882 0.198051 -0.165785 -0.0551903 0.197961 -0.124884 -0.0554237 0.198135 -0.0496125
-0.0557286 0.198847 0.0256571 -0.0558642 0.199797 0.100922 -0.0559713 0.201078 0.176185 -0.0561117
0.202438 0.251487 -0.0562451 0.203593 0.251832 -0.0562456 0.203597 0.252176 -0.0562461 0.203602
0.25252 -0.0562466 0.203606 0.252865 -0.0562471 0.203611 0.253211 -0.0562476 0.203615 0.327623
-0.0563584 0.204589 0.402036 -0.0564712 0.205437 0.476451 -0.056586 0.206158 0.550867 -0.0567295
[...]
POINT_DATA 2585
FIELD attributes 4
age 1 2585 float
0 0.00501121 0.0100224 0.0150336 0.0200448 0.025056 0.0288056 0.0325533 0.036301 0.0400488 0.0437965
0.0475449 0.0512905 0.0550361 0.0587817 0.0625272 0.0700239 0.0775229 0.0850219 0.0925208 0.10002
0.10752 0.115019 0.122519 0.130019 0.137519 0.145019 0.152519 0.160019 0.167518 0.175018
0.182518 0.190018 0.197517 0.205017 0.212517 0.220017 0.227516 0.235016 0.242516 0.250015
0.257515 0.265015 0.272515 0.280014 0.287514 0.295014 0.302514 0.310014 0.317513 0.325013
0.332513 0.340013 0.347512 0.355012 0.362512 0.370012 0.377512 0.385011 0.392511 0.400011
0.407511 0.415011 0.42251 0.43001 0.43751 0.44501 0.45251 0.460009 0.467509 0.475009
0.482509 0.490009 0.497508 0.505008 0.512508 0.520008 0.527507 0.535005 0.542503 0.55
0 0.00502602 0.0100533 0.0150747 0.0200878 0.0250929 0.028832 0.0325651 0.0362916 0.0400112
0.0437246 0.0474307 0.0511299 0.0548274 0.0585247 0.0622238 0.0696345 0.0770704 0.0845212 0.0919868
0.0994669 0.106803 0.11414 0.121478 0.128817 0.134683 0.135136 0.135589 0.136043 0.136496
0.136949 0.14445 0.15195 0.159449 0.166948 0.174446 0.181945 0.189442 0.196939 0.204436
0.211933 0.219431 0.226927 0.234424 0.241921 0.249419 0.256916 0.264414 0.271911 0.279409
0.286907 0.294405 0.301903 0.309401 0.316899 0.324398 0.331896 0.339395 0.346893 0.354392
0.361891 0.36939 0.376889 0.384388 0.391887 0.399386 0.406886 0.414386 0.421885 0.429385
0.436884 0.444385 0.451885 0.459385 0.466885 0.474385 0.481886 0.489386 0.496887 0.504388
0.511889 0.51939 0.526891 0.534392 0.541893 0.549394 0 0.00502801 0.0100578 0.0150819
0.0200994 0.0251105 0.0288575 0.0325974 0.0363282 0.040054 0.0437701 0.0474748 0.0511737 0.0548715
0.0585684 0.0622648 0.0696631 0.0770885 0.0845319 0.0919975 0.0994848 0.106988 0.114492 0.122
0.129508 0.137018 0.144533 0.152041 0.15955 0.167057 0.174564 0.182077 0.189583 0.197088
0.204593 0.212098 0.21961 0.227115 0.23462 0.242125 0.24963 0.257143 0.264648 0.272153
0.279659 0.287165 0.294677 0.302183 0.309689 0.317195 0.324701 0.332214 0.33972 0.347226
0.354733 0.362239 0.369753 0.377259 0.384766 0.392272 0.399779 0.407293 0.4148 0.422307
0.429814 0.437321 0.444836 0.452343 0.459851 0.467358 0.474866 0.482381 0.489889 0.497396
0.504904 0.512412 0.519928 0.527436 0.534944 0.542453 0.549961 0 0.00503012 0.0100663
0.0150996 0.020127 0.0251495 0.0289153 0.0326692 0.0364111 0.0401426 0.0438574 0.0475523 0.0512418
0.0549302 0.0586179 0.0623091 0.0696962 0.0771195 0.0845735 0.0920439 0.0995355 0.107048 0.114561
0.122079 0.129602 0.137125 0.144654 0.152177 0.1597 0.167223 0.174745 0.182273 0.189794
0.197314 0.204835 0.212355 0.219882 0.227402 0.234922 0.242442 0.249963 0.25749 0.265011
0.272531 0.280052 0.287573 0.295101 0.302622 0.310143 0.317664 0.325185 0.332713 0.340235
0.347756 0.355278 0.362799 0.370328 0.37785 0.385372 0.392894 0.400416 0.407945 0.415467
0.422989 0.430512 0.438034 0.445564 0.453086 0.460609 0.468132 0.475654 0.483185 0.490708
0.498231 0.505754 0.513277 0.520808 0.528331 0.535855 0.543378 0.550902 0 0.00268289
0.00536747 0.00805373 0.0107394 0.0139187 0.0161738 0.0184284 0.0206823 0.0229354 0.0251894 0.0267167
0.028242 0.0297644 0.0312838 0.0336819 0.0357139 0.0377402 0.039761 0.0417763 0.0437801 0.0474588
0.0511389 0.0548203 0.0585082 0.0622088 0.0622258 0.0622428 0.0622597 0.0622767 0.0622937 0.0659593
0.0696349 0.0733205 0.0770163 0.080722 0.0813139 0.0819057 0.0824976 0.0830896 0.0836671 0.0868245
0.0899844 0.0931469 0.0963121 0.0994792 0.107 0.114522 0.122048 0.12958 0.137117 0.14466
0.152197 0.159733 0.16727 0.174806 0.182349 0.189884 0.197419 0.204954 0.212489 0.220031
0.227565 0.2351 0.242635 0.25017 0.257712 0.265247 0.272782 0.280317 0.287852 0.295395
0.30293 0.310466 0.318002 0.325537 0.33308 0.340616 0.348152 0.355689 0.363225 0.370768
0.378305 0.385841 0.393377 0.400914 0.408458 0.415995 0.423532 0.431069 0.438606 0.44615
0.453687 0.461224 0.468762 0.476299 0.483844 0.491382 0.498919 0.506457 0.513995 0.52154
0.529078 0.536616 0.544155 0.551693 0 0.00126445 0.00252927 0.00379479 0.0050611 0.00632823
0.0101158 0.0139117 0.0177192 0.0215333 0.0253298 0.0269099 0.0284797 0.0300428 0.0315987 0.03299
0.0333184 0.0336465 0.0339742 0.0343017 0.0346291 0.0364574 0.0382785 0.0400907 0.0418977 0.0436953
0.0454958 0.0473009 0.049118 0.0509401 0.0527663 0.0529155 0.0530648 0.0532141 0.0533634 0.05352
0.0552005 0.0568839 0.0585699 0.060259 0.0619506 0.0656463 0.069359 0.0730897 0.0768311 0.0805815
0.084345 0.0881076 0.0918709 0.0956369 0.0994053 0.106941 0.114479 0.122021 0.129567 0.137117
0.144682 0.152235 0.159788 0.16734 0.174893 0.182453 0.190005 0.197556 0.205108 0.212659
0.220217 0.227768 0.235319 0.24287 0.250421 0.257979 0.26553 0.273082 0.280633 0.288185
0.295744 0.303295 0.310847 0.318399 0.325951 0.33351 0.341062 0.348614 0.356166 0.363718
0.371278 0.37883 0.386383 0.393935 0.401488 0.409048 0.416601 0.424153 0.431706 0.439259
0.44682 0.454372 0.461926 0.469479 0.477032 0.484593 0.492146 0.4997 0.507253 0.514807
0.522368 0.529921 0.537475 0.545028 0.552582 0 0.00126545 0.00253142 0.0037979 0.0050649
0.00633244 0.00822683 0.0101236 0.0120229 0.0139249 0.0158291 0.0177466 0.0196689 0.0215923 0.0235188
0.0254576 0.0264288 0.0273973 0.0283614 0.0293211 0.0302805 0.0307554 0.0312287 0.0316999 0.032169
0.0326822 0.0331383 0.0335923 0.0340444 0.0344945 0.034942 0.0358523 0.0367594 0.0376625 0.0385612
0.0394511 0.0403403 0.0412279 0.0421149 0.0430015 0.0438888 0.0452324 0.0465827 0.04794 0.0492849
0.0528831 0.0547118 0.0565543 0.0584081 0.0602685 0.0621297 0.0640009 0.0658732 0.0677476 0.0696247
0.0715058 0.0733944 0.0752774 0.0771565 0.0790375 0.0809236 0.0840611 0.0872028 0.0903462 0.0934911
0.0961509 0.0969039 0.0976571 0.0984103 0.0991638 0.0999173 0.10751 0.115106 0.122705 0.130308
0.137915 0.145547 0.153154 0.160756 0.168359 0.17596 0.183581 0.191181 0.198779 0.206376
0.213974 0.221591 0.229188 0.236784 0.24438 0.251977 0.259591 0.267188 0.274783 0.282379
0.289976 0.297589 0.305185 0.31278 0.320376 0.327972 0.335583 0.343179 0.350774 0.358369
0.365965 0.373575 0.38117 0.388765 0.39636 0.403955 0.411564 0.419159 0.426753 0.434348
0.441942 0.44955 0.457145 0.464739 0.472333 0.479927 0.487534 0.495128 0.502722 0.510315
0.517909 0.525515 0.533108 0.540702 0.548295 0.555889 0 0.00126279 0.00252626 0.00379076
0.00505644 0.0063233 0.00823334 0.0101454 0.0120612 0.0139803 0.0159048 0.0178221 0.0197524 0.0216955
0.0236514 0.0256297 0.0266297 0.0276305 0.0286317 0.029632 0.0306443 0.030891 0.0311377 0.0313841
0.0316286 0.0318182 0.0325694 0.0333082 0.0340338 0.0347457 0.0354493 0.0358962 0.0363415 0.0367852
0.0372274 0.0376637 0.038101 0.0385355 0.0389677 0.0393991 0.0398282 0.0402601 0.040692 0.0411241
0.0415567 0.0419919 0.0424272 0.042862 0.0432972 0.0437333 0.0441716 0.0450482 0.0459342 0.0468305
0.047738 0.0486624 0.0493927 0.0501222 0.0508539 0.0515888 0.0524887 0.0526604 0.0528322 0.053004
0.053176 0.0533481 0.0543013 0.0552531 0.056207 0.0571643 0.0581236 0.0590919 0.0600594 0.0610281
0.0619997 0.062973 0.0649409 0.0669036 0.0688613 0.0708233 0.0727685 0.0746998 0.076646 0.0786072
0.0805729 0.0825433 0.0865043 0.0904569 0.0943837 0.0982946 0.102209 0.110037 0.117831 0.125556
0.133221 0.14089 0.148588 0.156264 0.163936 0.171604 0.179269 0.186951 0.194615 0.202277
0.209937 0.217597 0.225271 0.23293 0.240588 0.248244 0.255901 0.263571 0.271227 0.278882
0.286536 0.29419 0.301856 0.30951 0.317163 0.324815 0.332467 0.34013 0.347782 0.355433
0.363083 0.370733 0.378392 0.386042 0.39369 0.401338 0.408986 0.416643 0.42429 0.431937
0.439583 0.447229 0.454883 0.462529 0.470174 0.477818 0.485462 0.493113 0.500757 0.5084
0.516042 0.523684 0.531331 0.538973 0.546614 0.554255 0.561896 0 0.00126442 0.00252949
0.0037952 0.00506157 0.00632918 0.00824624 0.0101657 0.0120885 0.0140175 0.0159588 0.0169289 0.0179018
0.018878 0.0198573 0.0208398 0.0218274 0.0228232 0.023828 0.0248417 0.0258659 0.0263835 0.0269029
0.027426 0.0279526 0.0284857 0.0287758 0.0290674 0.0293612 0.0296578 0.0297557 0.0300559 0.0303575
0.03066 0.0309623 0.0312728 0.0313694 0.031466 0.0315628 0.0316598 0.0317306 0.0317657 0.0318007
0.0318358 0.0318708 0.0319042 0.0320677 0.0322311 0.0323943 0.0325573 0.0327217 0.0329004 0.0330788
0.0332566 0.0334316 0.0335607 0.0336664 0.0337715 0.033876 0.0339796 0.0340847 0.0341951 0.0343041
0.0344116 0.034518 0.034605 0.0346594 0.0347136 0.0347674 0.0348209 0.0348732 0.034971 0.0350683
0.0351652 0.0352617 0.035356 0.035478 0.0355985 0.0357175 0.0358354 0.0360273 0.0361281 0.0362284
0.0363285 0.0364284 0.0365184 0.0366052 0.0366922 0.0367792 0.0368662 0.037026 0.0371475 0.0372688
0.03739 0.0375109 0.0376302 0.0378491 0.0380664 0.0382838 0.0385019 0.0387163 0.0389346 0.0391522
0.0393702 0.0395886 0.0398068 0.040028 0.0402475 0.0404673 0.0406872 0.040908 0.0411285 0.0413486
0.0415691 0.0417903 0.0420139 0.0422389 0.042462 0.0426852 0.0429091 0.0431339 0.0434684 0.0438045
0.0441462 0.0444938 0.0446558 0.0448182 0.044981 0.0451442 0.0453077 0.0454725 0.0459611 0.046442
0.0469231 0.0473994 0.0478971 0.0484155 0.0489233 0.049432 0.0499454 0.0504663 0.0505324 0.0505986
0.050665 0.0507315 0.0507967 0.0518099 0.0528654 0.053966 0.055028 0.0561024 0.0573075 0.0584907
0.0596755 0.0608664 0.0620571 0.0624538 0.0628496 0.0632453 0.0636412 0.064087 0.0648986 0.0657019
0.0665025 0.0673054 0.0681069 0.0682289 0.0683507 0.0684721 0.0685932 0.0687132 0.0697839 0.0708484
0.071911 0.0729716 0.074027 0.075181 0.0763564 0.0775355 0.078716 0.079899 0.0813435 0.0827889
0.0842404 0.0856963 0.087531 0.088309 0.0890835 0.0898547 0.0906224 0.0913863 0.0958958 0.100381
0.104791 0.109111 0.1133 0.121475 0.129586 0.137626 0.145593 0.153478 0.161239 0.168999
0.176757 0.184513 0.192265 0.200014 0.207762 0.215509 0.223254 0.230997 0.238068 0.24514
0.25221 0.259279 0.266472 0.267115 0.267757 0.2684 0.269043 0.269685 0.277419 0.285153
0.292887 0.300622 0.308356 0.316082 0.323816 0.33155 0.339284 0.347018 0.354737 0.36247
0.370204 0.377937 0.385671 0.393383 0.401116 0.408849 0.416582 0.424315 0.432021 0.439753
0.447485 0.455217 0.462949 0.47065 0.478381 0.486111 0.493842 0.501574 0.509269 0.516999
0.524728 0.532458 0.540187 0.547877 0.555604 0.563332 0.57106 0.578788 0 0.00125411
0.00250917 0.00376554 0.00502336 0.00628274 0.00821406 0.0101481 0.0120849 0.0140287 0.0159869 0.0169596
0.0179362 0.0189168 0.0199015 0.0208903 0.0218848 0.02289 0.0239069 0.0249357 0.0259774 0.026506
0.0270378 0.0275764 0.0281218 0.028676 0.0292416 0.0298148 0.0304011 0.0310013 0.0316281 0.031947
0.0322658 0.0325853 0.0329058 0.0332409 0.0333118 0.0333827 0.0334536 0.0335246 0.0335825 0.0336591
0.0337343 0.0338086 0.0338822 0.0339442 0.0341157 0.0342839 0.0344488 0.0346102 0.0347771 0.0349196
0.0350594 0.0351967 0.0353305 0.0354498 0.0355702 0.03569 0.0358093 0.0359269 0.0360388 0.036156
0.0362702 0.0363814 0.0364921 0.0366382 0.0367454 0.0368524 0.0369592 0.0370658 0.0371637 0.0373601
0.0375567 0.0377566 0.0379597 0.038376 0.0386123 0.0388491 0.0390837 0.0393163 0.0395439 0.040008
0.0404657 0.0409197 0.0413703 0.0418157 0.0422728 0.0427147 0.0431601 0.0436085 0.0440599 0.0445331
0.0450003 0.0454788 0.0459619 0.0464529 0.0473139 0.048195 0.0490901 0.0499764 0.0517843 0.0529064
0.0540307 0.0551786 0.0563467 0.0575476 0.0588052 0.0600358 0.0612501 0.0624741 0.0637039 0.064585
0.0654536 0.0663215 0.0671843 0.0683195 0.0686366 0.0689539 0.0692713 0.0695893 0.0699077 0.070651
0.0713954 0.07214 0.0728857 0.0737963 0.0742624 0.0747283 0.0751939 0.0756583 0.0761207 0.0773623
0.0786083 0.0798619 0.0811162 0.08237 0.0848596 0.0873529 0.0898157 0.0922352 0.0946294 0.0994604
0.104244 0.108889 0.113397 0.117752 0.121628 0.12549 0.129335 0.133165 0.138101 0.14231
0.146472 0.150587 0.154658 0.158683 0.166442 0.17421 0.181976 0.189742 0.197505 0.20525
0.213012 0.220774 0.228536 0.236297 0.24403 0.251789 0.259549 0.267308 0.275068 0.282793
0.290551 0.298309 0.306067 0.313826 0.321544 0.329301 0.337058 0.344815 0.352573 0.360284
0.36804 0.375796 0.383552 0.391309 0.399014 0.406768 0.414523 0.422278 0.430033 0.437733
0.445486 0.453239 0.460992 0.468746 0.47644 0.484191 0.491943 0.499695 0.507447 0.515135
0.522885 0.530635 0.538385 0.546135 0.553818 0.561564 0.569311 0.577058 0.584805 0
0.00125903 0.00251875 0.00377914 0.00504095 0.00630441 0.00823311 0.0101647 0.0120993 0.0140412 0.0159974
0.0169703 0.0179472 0.0189283 0.0199136 0.0209032 0.0218977 0.0229028 0.0239195 0.024948 0.0259895
0.0265186 0.0270505 0.0275881 0.0281325 0.0286861 0.0292491 0.0298198 0.0303999 0.0309926 0.0316149
0.0319311 0.0322479 0.0325651 0.0328823 0.0332121 0.03345 0.0336865 0.0339211 0.0341496 0.0342464
0.0343501 0.0344527 0.0345543 0.0346547 0.0347578 0.0349591 0.0351536 0.0353415 0.0355234 0.035678
0.0357558 0.0358334 0.0359102 0.0359862 0.0360657 0.0360668 0.0360679 0.036069 0.0360701 0.0360713
0.0362157 0.0363587 0.0365004 0.0366407 0.036846 0.0369222 0.0369983 0.0370744 0.0371503 0.0372223
0.0376812 0.038145 0.0386221 0.0391069 0.0395216 0.0399838 0.0404351 0.040885 0.041337 0.0417963
0.0422715 0.0427372 0.0431998 0.0436647 0.0441386 0.0446296 0.0451115 0.0455883 0.0460704 0.0465658
0.0475961 0.0486484 0.0497119 0.0507943 0.0516441 0.0516977 0.0517513 0.0518048 0.0518583 0.0519118
0.0530349 0.0541838 0.055361 0.0565619 0.0577823 0.0590516 0.0602981 0.061525 0.0627686 0.0640063
0.0646283 0.0652409 0.0658508 0.0664593 0.0670701 0.067695 0.0683102 0.0689169 0.0695247 0.0701384
0.071387 0.0726454 0.0739009 0.0751513 0.0763913 0.0772053 0.0780114 0.0788185 0.0796276 0.0805371
0.0809583 0.0813796 0.0818013 0.0822237 0.082647 0.0851548 0.0876477 0.0901256 0.092546 0.0949375
0.0996962 0.104407 0.109007 0.113494 0.117838 0.125042 0.132149 0.139129 0.145983 0.159072
0.1639 0.168727 0.173553 0.178377 0.183322 0.18622 0.189118 0.192015 0.194913 0.19781
0.205549 0.213291 0.221033 0.228774 0.236514 0.244242 0.251982 0.259722 0.267461 0.2752
0.28292 0.290659 0.298398 0.306136 0.313875 0.321588 0.329326 0.337064 0.344802 0.35254
0.360247 0.367984 0.375721 0.383459 0.391196 0.398897 0.406633 0.414369 0.422105 0.429842
0.437537 0.445272 0.453007 0.460742 0.468477 0.476167 0.483901 0.491635 0.499369 0.507103
0.514788 0.52252 0.530252 0.537984 0.545716 0.553396 0.561125 0.568855 0.576585 0.584315
0 0.00127992 0.00256048 0.0038423 0.0051256 0.00641039 0.00831683 0.0102258 0.0121375 0.0140557
0.015986 0.016958 0.0179331 0.0189116 0.0198935 0.0208789 0.0218731 0.0228763 0.0238893 0.0249123
0.0259475 0.0263897 0.0268335 0.0272807 0.0277313 0.027855 0.0280043 0.0281538 0.0283034 0.028453
0.028603 0.0291464 0.0296941 0.030249 0.0308127 0.0313973 0.0314722 0.0315471 0.031622 0.0316969
0.0317619 0.0319793 0.0321966 0.0324138 0.0326308 0.0328514 0.0329312 0.0330109 0.0330906 0.03317
0.0332388 0.0334499 0.0336601 0.0338692 0.0340751 0.0342873 0.0343497 0.0344116 0.0344731 0.0345342
0.0345872 0.0345925 0.0345978 0.034603 0.0346083 0.0346135 0.0348289 0.0350397 0.0352461 0.035445
0.0356354 0.0356571 0.0356787 0.0357002 0.0357217 0.0357437 0.0358457 0.0359466 0.0360466 0.0361478
0.0362925 0.0363861 0.0364791 0.0365714 0.0366629 0.0367519 0.0368558 0.0369589 0.0370616 0.0371644
0.0373129 0.0374118 0.0375106 0.0376095 0.0377091 0.0378064 0.0380182 0.0382282 0.0384377 0.0386465
0.0388586 0.0390786 0.0392942 0.0395054 0.0397166 0.0399305 0.0401467 0.0403612 0.0405747 0.0407888
0.0410054 0.0412265 0.0414441 0.0416604 0.0418771 0.0420947 0.0423135 0.0425309 0.0427481 0.0429657
0.0431845 0.0436297 0.0440751 0.0445238 0.0449759 0.0454361 0.045915 0.0463818 0.0468406 0.0473023
0.0477775 0.0482601 0.0487409 0.0492216 0.0497061 0.0501985 0.0512147 0.0522366 0.0532708 0.0543589
0.0554644 0.0558192 0.0561744 0.0565306 0.0568883 0.0572654 0.0580673 0.0588688 0.0596698 0.0604746
0.0612875 0.0624884 0.0636656 0.0648498 0.066049 0.0672425 0.0684703 0.0696742 0.0708555 0.0720305
0.0731975 0.0736272 0.0740561 0.0744855 0.0749152 0.0753372 0.0756686 0.0760003 0.0763321 0.0766642
0.0770054 0.0774178 0.0778305 0.0782435 0.0786569 0.0790705 0.081418 0.0837674 0.086116 0.0884343
0.090725 0.095238 0.0998034 0.104275 0.108601 0.11282 0.121131 0.129412 0.13763 0.145676
0.153553 0.161294 0.169035 0.176773 0.184508 0.192239 0.199967 0.207694 0.21542 0.223144
0.230866 0.237405 0.243945 0.250483 0.257021 0.263565 0.264743 0.265921 0.267098 0.268276
0.269453 0.277167 0.284882 0.292596 0.300311 0.308026 0.315733 0.323447 0.331162 0.338877
0.346591 0.354292 0.362006 0.36972 0.377434 0.385149 0.392843 0.400557 0.408271 0.415984
0.423698 0.431387 0.4391 0.446813 0.454526 0.462239 0.469923 0.477635 0.485347 0.493059
0.500771 0.508451 0.516162 0.523873 0.531584 0.539294 0.546969 0.554677 0.562387 0.570096
0.577805 0 0.00127753 0.00255577 0.00383513 0.00511577 0.00639769 0.00829927 0.0102028 0.0121092
0.0140204 0.0159397 0.0169038 0.0178699 0.0188379 0.0198081 0.0207806 0.0217543 0.0227331 0.0237172
0.0247058 0.0256982 0.0266889 0.027686 0.0286914 0.0296919 0.0307004 0.0307755 0.0308506 0.0309257
0.0310006 0.0310699 0.0319923 0.0328952 0.0337776 0.0346388 0.0354975 0.0359454 0.0363911 0.0368347
0.0372772 0.0377143 0.0381529 0.038589 0.0390243 0.0394588 0.0398876 0.0403207 0.0407539 0.0411874
0.0416213 0.0420557 0.0424919 0.042927 0.0433629 0.0437999 0.0442387 0.0451168 0.0460034 0.0468966
0.0477974 0.0487231 0.0496702 0.0506098 0.0515427 0.0524826 0.0534318 0.0541592 0.0548918 0.0556268
0.0563634 0.0574922 0.0576512 0.0578102 0.0579694 0.0581287 0.058288 0.059272 0.0602554 0.0612391
0.0622226 0.063205 0.0652055 0.0671927 0.0691693 0.0711555 0.0731391 0.0750978 0.0770828 0.0790826
0.0810864 0.083092 0.0871049 0.0911349 0.095133 0.0990857 0.103033 0.105901 0.108775 0.111657
0.114531 0.117916 0.122869 0.127793 0.132691 0.137561 0.142405 0.150115 0.157828 0.165538
0.173246 0.180951 0.188645 0.196346 0.204045 0.211743 0.21944 0.227126 0.23482 0.242512
0.250203 0.257894 0.265576 0.273264 0.280951 0.288637 0.296322 0.304001 0.311684 0.319366
0.327047 0.334728 0.342404 0.350082 0.35776 0.365437 0.373113 0.380786 0.38846 0.396134
0.403807 0.411479 0.419149 0.426819 0.434489 0.442159 0.449828 0.457494 0.465161 0.472828
0.480494 0.488159 0.495822 0.503486 0.51115 0.518812 0.526474 0.534134 0.541794 0.549454
0.557113 0.564773 0 0.00127409 0.0025488 0.00382397 0.00510036 0.00637798 0.00827388 0.0101719
0.0120723 0.0139756 0.0158831 0.0177924 0.0197069 0.0216263 0.0235504 0.0254825 0.0264534 0.0274212
0.0283842 0.0293422 0.0299593 0.0309777 0.0319886 0.0329889 0.033979 0.0349575 0.0358664 0.0367721
0.0376736 0.0385721 0.0394617 0.0403524 0.0412415 0.0421295 0.0430166 0.0439029 0.0456801 0.0474746
0.0492836 0.0511024 0.0529375 0.0538022 0.0546681 0.0555361 0.0564062 0.0577564 0.058645 0.0595353
0.0604275 0.0613214 0.0622168 0.0640924 0.065971 0.0678522 0.0697361 0.071622 0.0735176 0.0754053
0.077294 0.0791841 0.0810753 0.0848714 0.0886665 0.0924663 0.0962704 0.100089 0.107788 0.11549
0.123146 0.130766 0.138401 0.146049 0.153696 0.161341 0.168984 0.176626 0.184272 0.191914
0.199555 0.207195 0.214833 0.222475 0.230113 0.23775 0.245386 0.253022 0.26066 0.268296
0.27593 0.283564 0.291197 0.298833 0.306466 0.314098 0.32173 0.32936 0.336994 0.344625
0.352255 0.359885 0.367513 0.375144 0.382773 0.390401 0.398029 0.405655 0.413284 0.420911
0.428537 0.436163 0.443787 0.451414 0.459039 0.466663 0.474287 0.48191 0.489535 0.497158
0.50478 0.512401 0.520022 0.527645 0.535265 0.542886 0.550505 0.558125 0 0.00127142
0.00254322 0.00381555 0.00508847 0.006362 0.0101414 0.0139323 0.0177224 0.0215092 0.0252998 0.02579
0.026279 0.0267672 0.0272545 0.0276834 0.0290736 0.0304586 0.0318384 0.033213 0.0345851 0.0364263
0.0382579 0.0400727 0.0418834 0.043689 0.0455002 0.0473089 0.0491189 0.0509376 0.0527676 0.0546038
0.0564415 0.0582819 0.0601253 0.0619712 0.0656734 0.0693894 0.0731214 0.0768684 0.0806191 0.0843895
0.0881581 0.0919269 0.0956978 0.099471 0.107001 0.114529 0.122062 0.129611 0.137174 0.144753
0.152328 0.159905 0.167483 0.175059 0.18264 0.190217 0.197795 0.205372 0.212947 0.220527