# vtk DataFile Version 2.0
tracks
ASCII
DATASET POLYDATA
POINTS 2605 float
-1.001 -0.05 0.0011 -0.900789 -0.0500215 0.00109731 -0.800577 -0.050043 0.00109463 -0.700366 -0.0500645
0.00109196 -0.600155 -0.0500859 0.00108929 -0.499943 -0.0501072 0.00108663 -0.424945 -0.0501112 0.00107895
-0.349947 -0.050152 0.00106886 -0.274949 -0.0501926 0.00105886 -0.19995 -0.0502327 0.00104896 -0.124952
-0.0502725 0.00103915 -0.0499538 -0.0502819 0.0010394 0.0250446 -0.0502908 0.00104814 0.100043 -0.0502998
0.00105695 0.175041 -0.0503088 0.00106583 0.25004 -0.050318 0.00107479 0.400037 -0.0503119 0.00109088
0.550035 -0.0503101 0.00110511 0.700032 -0.0503083 0.00111953 0.85003 -0.0503064 0.00113413 1.00003
-0.0503046 0.00114893 1.15003 -0.0503153 0.00115613 1.30002 -0.0503209 0.00116061 1.45002 -0.0503267
0.00116512 1.60002 -0.0503324 0.00116963 1.75002 -0.0503382 0.00117417 1.90002 -0.0503467 0.00117704
2.05002 -0.0503532 0.00117897 2.20001 -0.0503597 0.00118091 2.35001 -0.0503662 0.00118286 2.50001
-0.0503727 0.0011848 2.65001 -0.0503807 0.00118585 2.80001 -0.0503888 0.00118654 2.95001 -0.0503969
0.00118724 3.10001 -0.050405 0.00118793 3.25001 -0.050413 0.00118863 3.40001 -0.0504209 0.00118891
3.55001 -0.0504297 0.00118949 3.70001 -0.0504385 0.00119007 3.85001 -0.0504474 0.00119066 4.00001
-0.0504562 0.00119124 4.15 -0.050464 0.00119132 4.3 -0.0504735 0.00119199 4.45 -0.0504831
0.00119267 4.6 -0.0504928 0.00119334 4.75 -0.0505024 0.00119402 4.9 -0.05051 0.00119402
5.05 -0.0505201 0.00119486 5.2 -0.0505302 0.00119569 5.35 -0.0505403 0.00119653 5.5
-0.0505504 0.00119737 5.65 -0.0505579 0.00119733 5.8 -0.0505683 0.00119833 5.95 -0.0505787
0.00119932 6.1 -0.0505891 0.00120032 6.25 -0.0505996 0.00120132 6.4 -0.050607 0.00120125
6.55 -0.0506176 0.00120239 6.7 -0.0506282 0.00120352 6.85 -0.0506389 0.00120466 7
-0.0506495 0.0012058 7.15 -0.0506569 0.00120571 7.3 -0.0506677 0.00120695 7.45 -0.0506784
0.00120819 7.6 -0.0506892 0.00120944 7.75 -0.0507 0.00121069 7.9 -0.0507073 0.00121058
8.05 -0.0507182 0.00121192 8.2 -0.0507291 0.00121325 8.35 -0.05074 0.00121459 8.5
-0.0507509 0.00121593 8.65 -0.0507582 0.00121581 8.8 -0.0507691 0.00121723 8.95 -0.0507801
0.00121864 9.1 -0.0507911 0.00122005 9.25 -0.050802 0.00122147 9.4 -0.0508092 0.00122135
9.55 -0.0508664 0.00122348 9.7 -0.0509749 0.00122637 9.85 -0.0511348 0.00123 10
-0.051346 0.00123437 -1.001 -0.05 0.0537316 -0.900807 -0.0501061 0.0535765 -0.800614 -0.0502124
0.0533942 -0.700421 -0.0503422 0.0531782 -0.600229 -0.0505032 0.0529268 -0.500035 -0.0506951 0.05264
-0.425004 -0.0509431 0.0524183 -0.349973 -0.0512805 0.0521299 -0.274943 -0.0516652 0.0518625 -0.199912
-0.0520837 0.0516374 -0.124879 -0.0524866 0.0514945 -0.0498864 -0.0527536 0.0515319 0.0251065 -0.0529746
0.0516979 0.100099 -0.0531908 0.0519322 0.175092 -0.0534164 0.0522147 0.250087 -0.053637 0.0525321
0.400077 -0.0540246 0.0531674 0.550067 -0.0544096 0.0536821 0.700057 -0.0547533 0.0541482 0.850047
-0.0550555 0.0545652 1.00003 -0.0553243 0.0549327 1.14692 -0.0556934 0.0552112 1.29381 -0.0560309
0.055471 1.4407 -0.0563656 0.0556971 1.58758 -0.0566977 0.0558895 1.70503 -0.0569613 0.0560163
1.71403 -0.0569822 0.0560247 1.72303 -0.0570033 0.056033 1.73202 -0.0570244 0.0560412 1.74102
-0.0570457 0.0560494 1.75002 -0.057067 0.0560574 1.90002 -0.0574246 0.0561908 2.05002 -0.0577778
0.0563069 2.20001 -0.0581272 0.0564054 2.35001 -0.0584727 0.0564862 2.50001 -0.0588144 0.0565494
2.65001 -0.0591613 0.0566014 2.80001 -0.0595078 0.0566468 2.95001 -0.0598534 0.0566844 3.10001
-0.0601983 0.0567144 3.25001 -0.0605423 0.0567367 3.40001 -0.0608872 0.0567539 3.55001 -0.0612336
0.0567704 3.70001 -0.0615784 0.0567848 3.85001 -0.0619217 0.0567972 4.00001 -0.0622635 0.0568075
4.15 -0.0626032 0.0568155 4.3 -0.0629465 0.0568244 4.45 -0.0632885 0.0568326 4.6
-0.0636289 0.05684 4.75 -0.0639679 0.0568467 4.9 -0.064302 0.0568511 5.05 -0.0646415
0.0568574 5.2 -0.0649796 0.0568633 5.35 -0.0653163 0.0568689 5.5 -0.0656517 0.056874
5.65 -0.0659803 0.0568766 5.8 -0.0663153 0.0568818 5.95 -0.0666492 0.0568866 6.1
-0.0669817 0.0568913 6.25 -0.067313 0.0568957 6.4 -0.0676364 0.0568971 6.55 -0.067967
0.0569016 6.7 -0.0682963 0.0569059 6.85 -0.0686244 0.05691 7 -0.0689514 0.056914
7.15 -0.0692696 0.0569147 7.3 -0.0695955 0.0569188 7.45 -0.0699203 0.0569227 7.6
-0.0702438 0.0569265 7.75 -0.0705662 0.0569302 7.9 -0.0708793 0.0569304 8.05 -0.0712005
0.0569342 8.2 -0.0715206 0.056938 8.35 -0.0718395 0.0569418 8.5 -0.0721573 0.0569455
8.65 -0.0724654 0.0569456 8.8 -0.0727818 0.0569494 8.95 -0.0730971 0.0569531 9.1
-0.0734112 0.0569567 9.25 -0.0737242 0.0569602 9.4 -0.0740272 0.0569598 9.55 -0.0743392
0.0569634 9.7 -0.0746507 0.0569669 9.85 -0.0749617 0.0569705 10 -0.0752722 0.0569739
-1.001 -0.05 0.106363 -0.900818 -0.050078 0.106138 -0.800636 -0.0501538 0.105866 -0.700455
-0.0502563 0.105547 -0.600274 -0.0504291 0.105006 -0.50009 -0.0506718 0.104245 -0.424996 -0.0509587
0.103661 -0.349901 -0.051307 0.103057 -0.274807 -0.0516596 0.102523 -0.199711 -0.0519579 0.102096
-0.124607 -0.0523004 0.101995 -0.0496045 -0.052549 0.102109 0.0253976 -0.0527428 0.102339 0.100399
-0.0529237 0.102651 0.175401 -0.053125 0.103048 0.250411 -0.0533464 0.10353 0.400346 -0.0537543
0.104528 0.550283 -0.0541606 0.105399 0.70022 -0.0545279 0.106183 0.850157 -0.0548645 0.1068
1.00009 -0.05517 0.10725 1.15007 -0.0556113 0.107515 1.30006 -0.0559083 0.107812 1.45005
-0.0561542 0.108088 1.60003 -0.0563942 0.108332 1.75002 -0.0566283 0.108543 1.90002 -0.0569362
0.108688 2.05002 -0.0571809 0.108843 2.20001 -0.0574197 0.108982 2.35001 -0.0576559 0.109104
2.50001 -0.0578897 0.10921 2.65001 -0.0581798 0.109279 2.80001 -0.058428 0.109347 2.95001
-0.058675 0.109407 3.10001 -0.0589212 0.10946 3.25001 -0.0591668 0.109505 3.40001 -0.0594552
0.10954 3.55001 -0.0597073 0.109573 3.70001 -0.0599575 0.109605 3.85001 -0.0602061 0.109634
4 -0.0604531 0.109661 4.15 -0.0607354 0.109687 4.3 -0.0609874 0.109709 4.45
-0.0612376 0.109729 4.6 -0.0614862 0.109749 4.75 -0.0617333 0.109768 4.9 -0.0620091
0.109791 5.05 -0.0622592 0.109807 5.2 -0.0625075 0.109821 5.35 -0.0627545 0.109836
5.5 -0.0630001 0.10985 5.65 -0.0632695 0.109871 5.8 -0.063517 0.109882 5.95
-0.063763 0.109893 6.1 -0.0640077 0.109903 6.25 -0.0642512 0.109913 6.4 -0.0645146
0.109933 6.55 -0.0647592 0.109941 6.7 -0.0650024 0.109949 6.85 -0.0652444 0.109956
7 -0.0654852 0.109964 7.15 -0.0657428 0.109982 7.3 -0.0659843 0.109988 7.45
-0.0662244 0.109993 7.6 -0.0664634 0.109999 7.75 -0.0667013 0.110004 7.9 -0.0669531
0.110022 8.05 -0.0671913 0.110025 8.2 -0.0674282 0.110029 8.35 -0.067664 0.110033
8.5 -0.0678987 0.110036 8.65 -0.0681451 0.110054 8.8 -0.0683798 0.110057 8.95
-0.0686132 0.110059 9.1 -0.0688454 0.110062 9.25 -0.0690765 0.110064 9.4 -0.0693172
0.110081 9.55 -0.0695486 0.110082 9.7 -0.0697794 0.110083 9.85 -0.0700097 0.110084
10 -0.0702395 0.110085 -1.001 -0.05 0.158995 -0.900796 -0.0500885 0.15877 -0.800593
-0.0501929 0.158424 -0.700392 -0.0503547 0.157688 -0.600196 -0.0505865 0.156477 -0.499992 -0.0508803
0.154639 -0.42472 -0.0514874 0.153039 -0.349437 -0.0519545 0.152121 -0.274149 -0.052351 0.151563
-0.19886 -0.0527455 0.151273 -0.1237 -0.0530626 0.15133 -0.0487806 -0.0531859 0.151495 0.0261372
-0.0532646 0.151976 0.101053 -0.0534045 0.15268 0.175968 -0.0535713 0.153478 0.250944 -0.0537253
0.154305 0.400784 -0.0539371 0.155724 0.550625 -0.0544441 0.1569 0.700468 -0.0549164 0.157653
0.850313 -0.0553148 0.158252 1.00014 -0.0556821 0.158682 1.15012 -0.0561858 0.158928 1.30009
-0.0565447 0.159206 1.45007 -0.0568103 0.159475 1.60005 -0.0569988 0.159729 1.75002 -0.0571814
0.159951 1.90002 -0.057439 0.160107 2.05002 -0.0576327 0.160273 2.20002 -0.0578143 0.160425
2.35001 -0.0579871 0.160562 2.50001 -0.0581575 0.160681 2.65001 -0.0583847 0.160765 2.80001
-0.0585698 0.160848 2.95001 -0.0587526 0.160923 3.10001 -0.0589338 0.160991 3.25001 -0.0591144
0.161052 3.40001 -0.0593379 0.161103 3.55001 -0.0595252 0.161152 3.70001 -0.0597097 0.161199
3.85001 -0.0598919 0.161245 4 -0.0600726 0.161289 4.15 -0.0602884 0.161332 4.3
-0.0604742 0.16137 4.45 -0.0606573 0.161407 4.6 -0.0608383 0.161444 4.75 -0.0610178
0.161481 4.9 -0.0612258 0.16152 5.05 -0.0614083 0.161553 5.2 -0.0615886 0.161585
5.35 -0.061767 0.161616 5.5 -0.061944 0.161648 5.65 -0.0621444 0.161686 5.8
-0.0623234 0.161714 5.95 -0.0625004 0.161742 6.1 -0.0626756 0.16177 6.25 -0.0628497
0.161797 6.4 -0.0630433 0.161834 6.55 -0.0632185 0.161859 6.7 -0.0633919 0.161884
6.85 -0.0635638 0.161909 7 -0.0637345 0.161933 7.15 -0.0639214 0.161969 7.3
-0.0640928 0.161992 7.45 -0.0642625 0.162014 7.6 -0.0644308 0.162037 7.75 -0.0645979
0.162059 7.9 -0.0647786 0.162094 8.05 -0.0649461 0.162114 8.2 -0.0651121 0.162135
8.35 -0.0652767 0.162156 8.5 -0.0654402 0.162177 8.65 -0.065615 0.162211 8.8
-0.0657785 0.162231 8.95 -0.0659404 0.16225 9.1 -0.066101 0.162269 9.25 -0.0662604
0.162288 9.4 -0.066429 0.162321 9.55 -0.0665887 0.162339 9.7 -0.0667476 0.162357
9.85 -0.0669057 0.162374 10 -0.0670633 0.162391 -1.001 -0.05 0.211626 -0.947631
-0.0500806 0.211469 -0.894261 -0.0501657 0.211279 -0.840892 -0.0502554 0.211054 -0.787523 -0.0503896
0.210764 -0.724313 -0.0506332 0.210286 -0.679436 -0.0509107 0.209636 -0.634563 -0.0512455 0.208758
-0.589694 -0.0515842 0.207744 -0.544827 -0.051928 0.206591 -0.499928 -0.0522782 0.205299 -0.469371
-0.0525728 0.204245 -0.438817 -0.0528777 0.203128 -0.408258 -0.0531669 0.202138 -0.377695 -0.0534416
0.201271 -0.329199 -0.0538624 0.200029 -0.288319 -0.0542012 0.199128 -0.247435 -0.05454 0.198445
-0.206548 -0.054883 0.198073 -0.165658 -0.0551902 0.197986 -0.124885 -0.0554233 0.198162 -0.0496131
-0.0557296 0.198878 0.0256568 -0.0558672 0.199829 0.100922 -0.0559769 0.201111 0.176185 -0.0561199
0.20247 0.25108 -0.0562551 0.203617 0.251162 -0.0562553 0.203618 0.251243 -0.0562554 0.203619
0.251325 -0.0562555 0.20362 0.251406 -0.0562556 0.203621 0.251487 -0.0562558 0.203622 0.326244
-0.0563698 0.204601 0.401002 -0.0564858 0.205454 0.475762 -0.0566038 0.206178 0.550522 -0.0567501
[...]
POINT_DATA 2605
FIELD attributes 4
age 1 2605 float
0 0.00501121 0.0100224 0.0150336 0.0200448 0.025056 0.0288056 0.0325533 0.036301 0.0400487 0.0437965
0.0475449 0.0512905 0.0550361 0.0587817 0.0625272 0.070024 0.0775229 0.0850219 0.0925208 0.10002
0.10752 0.115019 0.122519 0.130019 0.137519 0.145019 0.152519 0.160019 0.167518 0.175018
0.182518 0.190018 0.197517 0.205017 0.212517 0.220017 0.227516 0.235016 0.242516 0.250015
0.257515 0.265015 0.272515 0.280014 0.287514 0.295014 0.302514 0.310014 0.317513 0.325013
0.332513 0.340013 0.347512 0.355012 0.362512 0.370012 0.377512 0.385011 0.392511 0.400011
0.407511 0.415011 0.42251 0.43001 0.43751 0.44501 0.45251 0.460009 0.467509 0.475009
0.482509 0.490009 0.497508 0.505008 0.512508 0.520008 0.527507 0.535005 0.542503 0.55
0 0.00502598 0.0100532 0.0150745 0.0200877 0.0250927 0.0288318 0.032565 0.0362914 0.0400111
0.0437245 0.0474307 0.05113 0.0548275 0.0585248 0.062224 0.0696348 0.0770708 0.0845217 0.0919873
0.0994675 0.106806 0.114146 0.121487 0.128829 0.1347 0.13515 0.1356 0.13605 0.1365
0.13695 0.14445 0.15195 0.15945 0.166949 0.174447 0.181945 0.189442 0.19694 0.204437
0.211934 0.219431 0.226928 0.234425 0.241922 0.249419 0.256917 0.264414 0.271912 0.279409
0.286907 0.294406 0.301904 0.309402 0.3169 0.324398 0.331897 0.339395 0.346894 0.354393
0.361891 0.369391 0.37689 0.384389 0.391888 0.399387 0.406887 0.414386 0.421886 0.429385
0.436885 0.444386 0.451885 0.459385 0.466886 0.474386 0.481887 0.489387 0.496888 0.504389
0.511889 0.519391 0.526892 0.534393 0.541894 0.549395 0 0.00502797 0.0100577 0.0150817
0.0200992 0.0251103 0.0288573 0.0325972 0.036328 0.0400539 0.04377 0.0474747 0.0511737 0.0548716
0.0585685 0.062265 0.0696634 0.0770889 0.0845324 0.091998 0.0994853 0.106988 0.114493 0.122
0.129509 0.137018 0.144533 0.152042 0.15955 0.167058 0.174565 0.182078 0.189583 0.197089
0.204594 0.212099 0.219611 0.227116 0.234621 0.242126 0.249631 0.257143 0.264649 0.272154
0.27966 0.287165 0.294678 0.302184 0.30969 0.317196 0.324702 0.332215 0.339721 0.347227
0.354734 0.36224 0.369754 0.37726 0.384767 0.392273 0.39978 0.407294 0.414801 0.422308
0.429815 0.437322 0.444837 0.452344 0.459852 0.467359 0.474867 0.482382 0.48989 0.497397
0.504905 0.512413 0.519929 0.527437 0.534945 0.542454 0.549962 0 0.00503008 0.0100662
0.0150994 0.0201268 0.0251493 0.0289149 0.0326688 0.0364107 0.0401423 0.0438571 0.0475521 0.0512417
0.0549302 0.0586179 0.0623092 0.0696964 0.0771198 0.0845738 0.0920443 0.099536 0.107048 0.114561
0.12208 0.129602 0.137125 0.144655 0.152178 0.159701 0.167224 0.174746 0.182274 0.189795
0.197315 0.204836 0.212356 0.219883 0.227403 0.234923 0.242443 0.249964 0.257491 0.265012
0.272532 0.280053 0.287574 0.295102 0.302623 0.310144 0.317665 0.325187 0.332715 0.340236
0.347758 0.355279 0.362801 0.37033 0.377852 0.385373 0.392895 0.400417 0.407947 0.415469
0.422991 0.430514 0.438036 0.445566 0.453089 0.460611 0.468134 0.475657 0.483187 0.49071
0.498233 0.505756 0.51328 0.52081 0.528334 0.535857 0.543381 0.550904 0 0.00268278
0.00536724 0.00805339 0.0107389 0.0139175 0.0161727 0.0184275 0.0206816 0.0229348 0.025189 0.0267207
0.0282504 0.0297771 0.0313009 0.0337131 0.0357387 0.0377586 0.0397731 0.041782 0.0437797 0.0474585
0.0511387 0.0548201 0.0585081 0.0621888 0.0621928 0.0621968 0.0622009 0.0622049 0.0622089 0.0658913
0.0695837 0.0732862 0.0769991 0.0807219 0.0813175 0.081913 0.0825086 0.0831042 0.0836852 0.086839
0.0899953 0.0931542 0.0963156 0.0994791 0.107 0.114522 0.122048 0.12958 0.137117 0.14466
0.152197 0.159734 0.16727 0.174807 0.182349 0.189885 0.19742 0.204955 0.21249 0.220031
0.227566 0.235101 0.242636 0.250171 0.257713 0.265248 0.272783 0.280318 0.287854 0.295396
0.302932 0.310468 0.318003 0.325539 0.333082 0.340618 0.348155 0.355691 0.363227 0.37077
0.378307 0.385843 0.39338 0.400917 0.408461 0.415998 0.423534 0.431071 0.438609 0.446153
0.45369 0.461228 0.468765 0.476303 0.483848 0.491385 0.498923 0.506461 0.513999 0.521544
0.529082 0.53662 0.544159 0.551697 0 0.00126444 0.00252925 0.00379475 0.00506105 0.00632817
0.0101157 0.0139115 0.0177189 0.0215329 0.0253293 0.0269132 0.0284869 0.0300537 0.0316134 0.0330126
0.0333363 0.0336597 0.0339827 0.0343056 0.0346283 0.0364565 0.0382775 0.0400896 0.0418965 0.0436941
0.0454945 0.0472996 0.0491168 0.0509389 0.0527652 0.0528951 0.0530249 0.0531548 0.0532848 0.0534201
0.0551204 0.0568235 0.0585294 0.0602382 0.0619498 0.0656457 0.0693583 0.073089 0.0768303 0.0805807
0.0843441 0.0881068 0.0918701 0.0956361 0.0994046 0.10694 0.114478 0.12202 0.129566 0.137116
0.144682 0.152234 0.159787 0.16734 0.174893 0.182453 0.190005 0.197556 0.205107 0.212659
0.220217 0.227768 0.235319 0.24287 0.250421 0.25798 0.265531 0.273082 0.280634 0.288185
0.295745 0.303296 0.310848 0.3184 0.325952 0.333511 0.341063 0.348615 0.356167 0.36372
0.37128 0.378832 0.386384 0.393937 0.40149 0.40905 0.416603 0.424155 0.431708 0.439261
0.446822 0.454375 0.461928 0.469481 0.477034 0.484596 0.492149 0.499702 0.507256 0.514809
0.522371 0.529924 0.537478 0.545032 0.552585 0 0.00126544 0.0025314 0.00379787 0.00506486
0.00633238 0.00822675 0.0101235 0.0120227 0.0139248 0.0158289 0.0177464 0.0196687 0.0215919 0.0235184
0.0254571 0.0264282 0.0273966 0.0283607 0.0293202 0.0302796 0.0307565 0.0312318 0.0317051 0.0321762
0.0326923 0.0331461 0.0335978 0.0340475 0.0344952 0.0349405 0.0358507 0.0367578 0.0376607 0.0385594
0.0394492 0.0403383 0.0412259 0.0421128 0.0429995 0.0438867 0.0451998 0.0465194 0.0478456 0.0491775
0.0491946 0.0499318 0.0506704 0.0514105 0.0521521 0.0528945 0.0547232 0.0565655 0.0584192 0.0602795
0.0621406 0.0640117 0.0658839 0.0677581 0.069635 0.071516 0.0734044 0.0752871 0.0771662 0.079047
0.0809331 0.0840484 0.0871679 0.0902891 0.0934118 0.096057 0.0968305 0.0976041 0.0983779 0.0991518
0.0999259 0.107519 0.115114 0.122713 0.130316 0.137923 0.145555 0.153162 0.160764 0.168366
0.175968 0.183589 0.191188 0.198786 0.206383 0.213981 0.221598 0.229195 0.23679 0.244387
0.251983 0.259598 0.267194 0.27479 0.282385 0.289982 0.297595 0.305191 0.312786 0.320381
0.327977 0.335589 0.343185 0.350779 0.358374 0.36597 0.37358 0.381175 0.38877 0.396365
0.40396 0.411569 0.419164 0.426758 0.434352 0.441947 0.449555 0.457149 0.464743 0.472337
0.479932 0.487538 0.495133 0.502726 0.510319 0.517913 0.525519 0.533112 0.540705 0.548299
0.555892 0 0.00126279 0.00252625 0.00379074 0.00505641 0.00632327 0.00823329 0.0101453 0.0120611
0.0139802 0.0159047 0.0178219 0.0197521 0.0216952 0.023651 0.0256291 0.026629 0.0276298 0.0286308
0.0296311 0.0306432 0.0308904 0.0311377 0.0313846 0.0316295 0.0318192 0.0325698 0.0333079 0.0340329
0.0347442 0.0354473 0.0358941 0.0363394 0.036783 0.0372253 0.0376615 0.0380988 0.0385333 0.0389654
0.0393968 0.0398258 0.0402577 0.0406896 0.0411216 0.0415543 0.0419895 0.0424249 0.0428597 0.043295
0.0437312 0.0441695 0.0450463 0.0459324 0.0468293 0.047737 0.0486617 0.0493772 0.0500919 0.0508088
0.0515287 0.0524094 0.0525971 0.0527849 0.0529728 0.0531609 0.0533492 0.0543031 0.0552551 0.0562094
0.0571674 0.0581274 0.0590961 0.0600641 0.0610333 0.0620052 0.0629789 0.0649473 0.0669106 0.0688687
0.0708312 0.0727764 0.0747078 0.076654 0.0786154 0.0805817 0.0825526 0.0865144 0.0904682 0.094396
0.0983071 0.102222 0.110051 0.117847 0.125572 0.133237 0.140906 0.148605 0.156282 0.163954
0.171621 0.179287 0.186969 0.194633 0.202295 0.209956 0.217616 0.22529 0.23295 0.240608
0.248264 0.255921 0.263591 0.271248 0.278903 0.286557 0.294212 0.301878 0.309532 0.317186
0.324838 0.33249 0.340153 0.347805 0.355456 0.363106 0.370756 0.378416 0.386066 0.393715
0.401363 0.409011 0.416668 0.424316 0.431963 0.439609 0.447255 0.454909 0.462555 0.4702
0.477845 0.485489 0.49314 0.500784 0.508427 0.51607 0.523712 0.53136 0.539002 0.546643
0.554284 0.561925 0 0.00126441 0.00252947 0.00379518 0.00506154 0.00632914 0.00824618 0.0101656
0.0120884 0.0140174 0.0159586 0.0169287 0.0179017 0.0188778 0.0198571 0.0208396 0.0218272 0.0228229
0.0238276 0.0248413 0.0258655 0.0263831 0.0269024 0.0274255 0.0279521 0.0284852 0.0287751 0.0290665
0.0293601 0.0296565 0.0297545 0.0300548 0.0303565 0.0306591 0.0309614 0.0312721 0.0313687 0.0314654
0.0315622 0.0316592 0.03173 0.031765 0.0318 0.0318349 0.0318698 0.0319031 0.0320667 0.0322301
0.0323933 0.0325564 0.0327208 0.0328995 0.0330778 0.0332556 0.0334306 0.0335596 0.0336653 0.0337704
0.033875 0.0339786 0.0340837 0.0341942 0.0343032 0.0344108 0.0345173 0.0346043 0.0346587 0.0347128
0.0347666 0.0348201 0.0348724 0.0349701 0.0350674 0.0351642 0.0352606 0.0353549 0.035477 0.0355977
0.0357169 0.0358351 0.0360277 0.0361282 0.0362283 0.036328 0.0364276 0.0365173 0.0366032 0.0366892
0.0367751 0.0368611 0.0370169 0.0371402 0.0372632 0.0373861 0.0375087 0.0376296 0.0378487 0.0380661
0.0382836 0.0385018 0.0387163 0.0389347 0.0391524 0.0393704 0.0395889 0.0398072 0.0400284 0.040248
0.0404677 0.0406877 0.0409084 0.0411289 0.041349 0.0415693 0.0417904 0.042014 0.0422388 0.0424618
0.0426848 0.0429085 0.0431332 0.0434642 0.0437967 0.0441347 0.0444782 0.0446434 0.0448075 0.0449721
0.045137 0.0453023 0.0454687 0.0459565 0.0464365 0.0469168 0.0473925 0.0478895 0.0484072 0.0489143
0.0494221 0.0499346 0.0504544 0.0505226 0.0505908 0.0506592 0.0507278 0.050795 0.0518045 0.0528561
0.0539525 0.0550107 0.056081 0.0572838 0.0584644 0.0596462 0.060834 0.0620216 0.0624256 0.0628286
0.0632315 0.0636347 0.0640897 0.0648905 0.0656834 0.0664731 0.067265 0.0680556 0.0682006 0.0683453
0.0684895 0.0686332 0.0687753 0.0698176 0.0708567 0.0718939 0.0729292 0.0739598 0.075112 0.0762848
0.0774614 0.0786393 0.0798197 0.0812754 0.0827323 0.0841958 0.0856641 0.0875265 0.0882875 0.0890453
0.0897997 0.090551 0.0912985 0.0958067 0.100291 0.1047 0.109019 0.113207 0.121382 0.129493
0.137533 0.1455 0.153385 0.161146 0.168907 0.176665 0.18442 0.192172 0.199921 0.20767
0.215417 0.223162 0.230905 0.23774 0.244574 0.251407 0.258239 0.265183 0.266065 0.266947
0.26783 0.268712 0.269594 0.277328 0.285063 0.292797 0.300532 0.308267 0.315993 0.323727
0.331461 0.339196 0.34693 0.354649 0.362383 0.370117 0.377851 0.385585 0.393298 0.401031
0.408765 0.416498 0.424231 0.431938 0.43967 0.447403 0.455135 0.462868 0.470568 0.4783
0.486031 0.493763 0.501495 0.50919 0.51692 0.524651 0.532381 0.540111 0.5478 0.555528
0.563256 0.570985 0.578714 0 0.00125411 0.00250916 0.00376552 0.00502333 0.0062827 0.008214
0.010148 0.0120848 0.0140286 0.0159868 0.0169595 0.017936 0.0189166 0.0199013 0.0208901 0.0218845
0.0228898 0.0239067 0.0249354 0.025977 0.0265056 0.0270374 0.027576 0.0281213 0.0286756 0.0292411
0.0298143 0.0304005 0.0310007 0.0316274 0.0319463 0.0322651 0.0325846 0.0329051 0.0332401 0.0333104
0.0333806 0.0334509 0.0335212 0.0335787 0.0336559 0.0337317 0.0338066 0.0338808 0.0339432 0.0341147
0.0342829 0.0344478 0.0346093 0.0347761 0.0349186 0.0350584 0.0351956 0.0353294 0.0354486 0.035569
0.0356888 0.0358081 0.0359257 0.0360376 0.0361549 0.036269 0.0363803 0.036491 0.0366373 0.0367442
0.0368509 0.0369575 0.0370638 0.0371614 0.0373551 0.0375489 0.0377458 0.0379455 0.0383643 0.0386002
0.0388371 0.0390718 0.0393046 0.0395326 0.039995 0.0404518 0.0409053 0.0413561 0.0418026 0.0422603
0.0427039 0.0431509 0.043601 0.0440542 0.0445299 0.0449996 0.0454796 0.0459644 0.0464576 0.0472607
0.0480817 0.0489148 0.0497653 0.0497814 0.0501889 0.0505953 0.0510006 0.0514048 0.0518107 0.0529416
0.0540717 0.0552257 0.0563997 0.05761 0.0588794 0.0601214 0.061347 0.0625816 0.0638196 0.0646571
0.0654849 0.0663122 0.0671349 0.0681255 0.0685127 0.0689002 0.0692879 0.0696758 0.0700642 0.0706543
0.0712453 0.0718371 0.0724297 0.073107 0.0731239 0.0731407 0.0731575 0.0731743 0.0731911 0.0738179
0.0744442 0.0750702 0.0756951 0.0763164 0.077566 0.0788187 0.0800793 0.0813403 0.0826007 0.0851027
0.0876088 0.090083 0.0925146 0.0949151 0.0996301 0.104297 0.108832 0.113237 0.118095 0.12091
0.123718 0.126517 0.129308 0.132581 0.138034 0.143408 0.148706 0.153929 0.159077 0.166837
0.174609 0.182379 0.190149 0.197917 0.205661 0.213428 0.221194 0.22896 0.236725 0.244458
0.252222 0.259986 0.267749 0.275513 0.283238 0.291 0.298763 0.306525 0.314288 0.322005
0.329767 0.337528 0.34529 0.353051 0.360762 0.368522 0.376283 0.384043 0.391804 0.399508
0.407267 0.415026 0.422785 0.430544 0.438243 0.446 0.453757 0.461515 0.469272 0.476966
0.484721 0.492477 0.500233 0.507989 0.515677 0.523431 0.531184 0.538938 0.546692 0.554375
0.562125 0.569875 0.577626 0.585377 0 0.00125903 0.00251873 0.00377912 0.00504092 0.00630437
0.00823305 0.0101647 0.0120992 0.0140411 0.0159972 0.0169701 0.0179471 0.0189282 0.0199134 0.020903
0.0218974 0.0229025 0.0239192 0.0249478 0.0259892 0.0265183 0.0270501 0.0275877 0.0281321 0.0286857
0.0292487 0.0298193 0.0303995 0.0309922 0.0316144 0.0319305 0.0322473 0.0325645 0.0328817 0.0332114
0.0334492 0.0336857 0.0339202 0.0341487 0.0342454 0.0343492 0.0344518 0.0345534 0.0346539 0.0347571
0.0349584 0.0351527 0.0353406 0.0355224 0.0356771 0.0357554 0.0358335 0.0359108 0.0359873 0.0360649
0.0360665 0.0360681 0.0360697 0.0360713 0.0360729 0.0362169 0.0363596 0.0365009 0.0366409 0.0368453
0.0369216 0.0369978 0.037074 0.03715 0.0372221 0.0376815 0.0381458 0.0386235 0.0391088 0.0395238
0.0399864 0.0404381 0.0408883 0.0413405 0.0417999 0.0422752 0.0427409 0.0432034 0.0436683 0.0441421
0.0446332 0.0451151 0.045592 0.0460742 0.0465698 0.0476008 0.0486542 0.049719 0.0508032 0.0517014
0.0517456 0.0517898 0.051834 0.0518782 0.0519223 0.0530471 0.0541981 0.0553765 0.0565779 0.0577981
0.0590642 0.0603091 0.0615357 0.062779 0.0640158 0.0646371 0.0652494 0.0658591 0.0664674 0.0670776
0.0677016 0.068316 0.0689223 0.0695295 0.0701424 0.071389 0.0726451 0.0738982 0.0751462 0.0763838
0.0772232 0.0780547 0.0788873 0.0797214 0.0806589 0.0810414 0.081424 0.0818069 0.0821905 0.0825664
0.0825789 0.0825914 0.0826039 0.0826164 0.0826289 0.0851326 0.087621 0.0900943 0.0925116 0.0949004
0.0996549 0.104363 0.108961 0.113445 0.117787 0.12501 0.132136 0.139133 0.146005 0.159019
0.163951 0.168882 0.173812 0.178741 0.183792 0.186585 0.189378 0.192171 0.194964 0.197756
0.205495 0.213238 0.220979 0.22872 0.236461 0.244189 0.251929 0.259669 0.267408 0.275148
0.282868 0.290606 0.298345 0.306084 0.313823 0.321536 0.329274 0.337013 0.344751 0.352489
0.360196 0.367933 0.375671 0.383409 0.391146 0.398847 0.406583 0.41432 0.422056 0.429793
0.437488 0.445223 0.452959 0.460694 0.46843 0.47612 0.483854 0.491588 0.499322 0.507056
0.514741 0.522474 0.530207 0.537939 0.545671 0.553351 0.561081 0.568811 0.576541 0.584272
0 0.00127992 0.00256047 0.00384228 0.00512558 0.00641036 0.00831678 0.0102257 0.0121374 0.0140556
0.0159859 0.0169579 0.017933 0.0189114 0.0198933 0.0208787 0.0218729 0.0228761 0.0238891 0.0249121
0.0259473 0.02639 0.0268343 0.027282 0.0277331 0.0278566 0.0280055 0.0281546 0.0283038 0.0284531
0.0286026 0.029146 0.0296937 0.0302486 0.0308123 0.0313968 0.0314716 0.0315464 0.0316211 0.0316958
0.0317608 0.0319783 0.0321957 0.032413 0.0326302 0.0328508 0.0329309 0.0330108 0.0330907 0.0331704
0.0332394 0.0334502 0.0336602 0.033869 0.0340747 0.0342866 0.0343489 0.0344107 0.0344721 0.0345331
0.0345861 0.0345916 0.0345972 0.0346028 0.0346083 0.0346138 0.034829 0.0350396 0.0352458 0.0354445
0.0356347 0.0356566 0.0356784 0.0357001 0.0357218 0.035744 0.0358456 0.0359463 0.0360459 0.0361468
0.0362911 0.0363848 0.036478 0.0365705 0.036662 0.0367512 0.0368553 0.0369586 0.0370614 0.0371644
0.0373131 0.0374119 0.0375105 0.0376091 0.0377085 0.0378056 0.0380174 0.0382274 0.0384368 0.0386456
0.0388577 0.0390776 0.0392931 0.0395042 0.0397154 0.0399293 0.0401455 0.0403599 0.0405734 0.0407874
0.0410041 0.0412252 0.0414429 0.0416592 0.0418758 0.0420934 0.0423123 0.0425297 0.0427468 0.0429644
0.0431833 0.0436286 0.0440742 0.044523 0.0449752 0.0454358 0.0459151 0.0463822 0.0468411 0.047303
0.0477785 0.0482616 0.0487429 0.0492242 0.0497093 0.0502023 0.0512196 0.0522427 0.0532783 0.054368
0.0554742 0.0558214 0.0561689 0.0565174 0.0568674 0.0572359 0.0580456 0.0588548 0.0596635 0.0604759
0.0612965 0.0624971 0.0636743 0.0648585 0.0660574 0.0672501 0.0684773 0.0696804 0.0708615 0.0720359
0.0732025 0.0736362 0.0740692 0.0745026 0.0749363 0.075362 0.0756681 0.0759745 0.076281 0.0765876
0.0769021 0.0773355 0.0777692 0.0782034 0.0786378 0.0790726 0.0814187 0.0837666 0.0861134 0.0884301
0.0907199 0.0952313 0.0997952 0.104264 0.10859 0.112809 0.12112 0.129401 0.13762 0.145665
0.153542 0.161283 0.169025 0.176762 0.184497 0.192228 0.199956 0.207684 0.215409 0.223133
0.230856 0.237205 0.243555 0.249904 0.256252 0.262602 0.26397 0.265339 0.266707 0.268075
0.269444 0.277157 0.284872 0.292587 0.300302 0.308017 0.315724 0.323439 0.331154 0.338869
0.346584 0.354284 0.361999 0.369713 0.377428 0.385143 0.392838 0.400551 0.408265 0.415979
0.423693 0.431383 0.439096 0.446809 0.454523 0.462236 0.46992 0.477633 0.485345 0.493057
0.50077 0.50845 0.516161 0.523872 0.531583 0.539294 0.546969 0.554678 0.562387 0.570097
0.577807 0 0.00127753 0.00255576 0.00383511 0.00511574 0.00639766 0.00829923 0.0102027 0.0121091
0.0140203 0.0159396 0.0169037 0.0178698 0.0188377 0.019808 0.0207804 0.0217542 0.0227329 0.023717
0.0247056 0.025698 0.0266887 0.0276858 0.0286911 0.0296917 0.0307001 0.0307755 0.0308509 0.0309262
0.0310014 0.0310708 0.031993 0.0328955 0.0337777 0.0346386 0.035497 0.0359449 0.0363905 0.0368341
0.0372765 0.0377136 0.0381521 0.0385882 0.0390234 0.0394579 0.0398866 0.0403197 0.0407529 0.0411864
0.0416202 0.0420546 0.0424908 0.0429258 0.0433618 0.0437987 0.0442374 0.0451155 0.0460021 0.0468952
0.047796 0.0487217 0.0496688 0.0506084 0.0515414 0.0524813 0.0534306 0.0541549 0.0548844 0.0556161
0.0563496 0.0574715 0.0576343 0.0577971 0.0579601 0.0581232 0.0582864 0.0592702 0.0602533 0.0612369
0.0622202 0.0632024 0.0652025 0.0671894 0.0691658 0.0711516 0.0731349 0.0750932 0.0770778 0.0790772
0.0810805 0.0830856 0.0870976 0.0911265 0.0951237 0.099076 0.103023 0.10587 0.108721 0.111581
0.114434 0.11779 0.122766 0.127713 0.132633 0.137527 0.142393 0.150103 0.157815 0.165525
0.173233 0.180938 0.188632 0.196332 0.204032 0.211729 0.219426 0.227112 0.234806 0.242498
0.250189 0.257879 0.265561 0.273249 0.280935 0.288621 0.296306 0.303985 0.311668 0.31935
0.327031 0.334712 0.342387 0.350065 0.357743 0.36542 0.373096 0.380769 0.388443 0.396116
0.403789 0.411462 0.419131 0.426802 0.434471 0.442141 0.449809 0.457476 0.465143 0.472809
0.480475 0.48814 0.495803 0.503467 0.51113 0.518793 0.526454 0.534114 0.541774 0.549434
0.557094 0.564753 0 0.00127409 0.00254879 0.00382395 0.00510034 0.00637795 0.00827384 0.0101718
0.0120722 0.0139755 0.015883 0.0177923 0.0197068 0.0216262 0.0235503 0.0254823 0.0264532 0.027421
0.028384 0.029342 0.0299615 0.0309795 0.0319898 0.0329896 0.0339792 0.0349572 0.0358661 0.0367717
0.0376732 0.0385717 0.0394612 0.0403518 0.0412409 0.0421289 0.0430159 0.0439022 0.0456794 0.0474738
0.0492828 0.0511015 0.0529366 0.0537968 0.0546582 0.0555217 0.0563872 0.0577268 0.058621 0.0595171
0.060415 0.0613147 0.0622159 0.0640915 0.0659699 0.0678511 0.069735 0.0716208 0.0735163 0.0754039
0.0772925 0.0791826 0.0810736 0.0848695 0.0886645 0.0924641 0.096268 0.100086 0.107785 0.115487
0.123143 0.130762 0.138397 0.146046 0.153692 0.161337 0.16898 0.176622 0.184268 0.191911
0.199552 0.207191 0.214829 0.222471 0.230109 0.237746 0.245383 0.253018 0.260656 0.268292
0.275926 0.28356 0.291193 0.298829 0.306462 0.314094 0.321726 0.329356 0.33699 0.344621
0.352251 0.359881 0.367509 0.37514 0.382769 0.390397 0.398025 0.405651 0.41328 0.420907
0.428533 0.436158 0.443783 0.45141 0.459035 0.466659 0.474282 0.481905 0.48953 0.497153
0.504775 0.512397 0.520018 0.52764 0.535261 0.542881 0.550501 0.55812 0 0.00127141
0.00254321 0.00381553 0.00508845 0.00636197 0.0101414 0.0139323 0.0177224 0.0215091 0.0252997 0.0257907
0.0262806 0.0267696 0.0272577 0.0276874 0.0290768 0.0304609 0.0318398 0.0332136 0.0345849 0.036426
0.0382576 0.0400723 0.041883 0.0436886 0.0454998 0.0473084 0.0491184 0.0509371 0.0527671 0.0546033
0.056441 0.0582815 0.0601249 0.0619709 0.065673 0.0693891 0.0731211 0.076868 0.0806186 0.084389