# vtk DataFile Version 2.0
sampleSurface
ASCII
DATASET POLYDATA
POINTS 2021 float
-0.500032 0 0.11501 -0.499951 3.38813e-21 0.0392727 -0.789037 8.47033e-21 0.120673 -0.500013 -1.35525e-20
0.193965 1.00003 0 0.0485099 1.00003 0 0.0478584 0.475202 0 0.0353615
0.250044 1.41878e-20 0.0305359 0.2506 -5.42101e-20 0.117067 0.251301 0 0.203885 0.364989
0 0.203772 1.75002 0 0.113255 1.75002 0 0.0564279 2.50001 6.89146e-18
0.059229 2.21354 0 0.250758 2.50001 0 0.252875 3.25001 -3.47927e-17 0.0598775
3.25001 -1.69407e-21 0.253888 4.00001 5.60566e-18 0.0599857 4 0 0.253986 4.75
-1.79088e-17 0.0599988 4.75 8.47033e-22 0.253998 5.5 -2.79246e-17 0.0599999 5.5 -4.23516e-22
0.253999 6.25 1.01187e-17 0.06 6.25 0 0.254 7 2.93732e-17 0.06
7 0 0.254 7.75 -2.65294e-17 0.06 7.75 0 0.254 8.5
1.8923e-17 0.06 8.5 0 0.254 9.25 -2.88552e-17 0.06 9.25 -5.29396e-23
0.254 10 -2.64698e-23 0.254 10 0 0.06 -4.24997 0 0.0599042
-5 0 0.0599861 -5 0 0.253986 -4.24997 0 0.253912 -3.49995
0 0.0593815 -3.49994 0 0.253441 -2.74993 0 0.0570188 -2.74991 0
0.251316 -1.99991 0 0.0492276 -1.99987 0 0.242776 -1.24992 -1.69407e-21 0.03
-1.24985 1.23328e-17 0.222327 -1.24989 3.38813e-21 0.125756 -0.874924 2.08116e-17 0.03 -0.874929
0 0.122356 -0.124951 -8.47033e-22 0.03 -0.499941 0 0.03 -0.124922 -8.47033e-22
0.0385291 1.00021 0 0.231242 0.625368 0 0.203537 0.25004 -2.11758e-22 0.03
1.75003 0 0.247334 1.92873 1.69407e-21 0.441438 2.50001 0 0.447397 3.25
-1.69407e-21 0.447898 4 0 0.447986 4.75 0 0.447997 5.5 -4.23516e-22
0.447999 6.25 4.23516e-22 0.447999 7 0 0.448 7.75 -1.05879e-22 0.448
8.5 0 0.448 9.25 0 0.448 10 -2.64698e-23 0.448 -5
-8.47033e-22 0.447985 -4.24997 0 0.447919 -3.49993 0 0.4475 -2.74988 0
0.445609 -1.9998 6.77626e-21 0.437758 -1.24969 1.61411e-17 0.417681 -1.24976 -6.77626e-21 0.31973
-0.875161 7.70461e-18 0.216228 -0.875403 0 0.312476 -0.499924 -8.74138e-19 0.250039 -0.312433
0 0.250037 -0.312436 0 0.200025 -0.499924 0 0.200026 0.250062 3.38813e-21
0.24921 0.250039 -1.69407e-21 0.250046 0.250032 0 0.300069 0.437526 3.05948e-18 0.300066
0.625026 0 0.30005 1.00072 -8.23994e-18 0.326497 1.00196 0 0.423 1.75013
0 0.439575 1.75013 1.77877e-20 0.448245 1.00135 0 0.537141 1.00002 0
0.61834 1.74999 2.71051e-20 0.633055 2.49999 -3.38813e-21 0.641448 3.25 0 0.641907
4 -1.69407e-21 0.641985 4.75 -8.47033e-22 0.641996 5.5 -4.23516e-22 0.641998 6.25
0 0.641999 7 0 0.641999 7.75 0 0.642 8.5 5.29396e-23
0.642 9.25 -5.29396e-23 0.642 10 0 0.642 -5 0 0.641985
-4.24997 -1.69407e-21 0.641926 -3.49993 0 0.641557 -2.74988 0 0.639897 -1.99989
6.77626e-21 0.63382 -1.25099 2.55465e-18 0.614606 -1.25 -2.71051e-20 0.515981 -0.878244 0
0.50789 -0.875961 2.71051e-20 0.459694 -0.875609 0 0.410432 -0.498432 0 0.400603
-0.498071 -1.70762e-18 0.413126 -0.450805 0 0.413349 -0.45095 0 0.400955 0.250009
1.89735e-19 0.412703 0.25 2.71051e-20 0.425212 0.296872 1.00289e-18 0.425187 0.343754 -2.71051e-20
0.425153 0.343763 0 0.400146 0.250006 0 0.400175 1.00162 1.41488e-17 0.520353
-2 4.23516e-22 0.820145 -2.09502 -2.11758e-22 0.830091 -2 0 0.829497 -1.25123
0 0.813251 -1.25126 0 0.713737 -1.25101 6.77626e-21 0.62198 1.00059 0
0.714169 1.00094 0 0.809205 1.75018 0 0.82775 2.5 0 0.835521
3.25 0 0.835917 4 -1.69407e-21 0.835986 4.75 -8.47033e-22 0.835996 5.5
0 0.835998 6.25 0 0.835999 7 0 0.835999 7.75 0
0.836 8.5 0 0.836 9.25 0 0.836 10 0 0.836
-5 -8.47033e-22 0.835986 -4.24997 0 0.835935 -3.49995 0 0.835616 -2.74991
0 0.83419 -0.970118 0 0.703382 -0.87455 0 0.699864 -0.874264 -2.71051e-20
0.649852 -0.874033 -2.71051e-20 0.599873 -0.49698 0 0.599585 -0.497345 -9.21572e-19 0.612046
-0.450014 0 0.611892 -0.44938 2.71051e-20 0.599454 -2.00002 0 0.84097 -1.84639
-3.38813e-21 1.02215 -1.25185 0 1.01276 -0.896512 -3.38813e-21 0.900668 -0.908183 6.77626e-21
0.801076 -0.904022 -1.86347e-20 1.00093 0.624925 0 0.799916 0.249931 0 0.799891
0.249978 0 0.899916 0.249997 0 0.999939 0.999987 0 0.999957 1.75061
-2.1684e-19 1.02409 2.50003 0 1.0296 3.25 -1.69407e-21 1.02993 4 0
1.02999 4.75 0 1.03 5.5 0 1.03 6.25 2.11758e-22 1.03
7 0 1.03 7.75 0 1.03 8.5 5.29396e-23 1.03 9.25
0 1.03 10 0 1.03 -5 0 1.02999 -4.24998 0
1.02994 -3.49996 -8.47033e-22 1.02968 -2.74996 0 1.02849 -2.00026 0 1.02458
-0.87482 0 0.799893 -0.87491 0 0.899919 -0.49993 0 0.799862 -0.499958
7.6233e-19 0.849889 -0.312476 0 0.849885 -0.312472 0 0.799853 -1.25001 8.04681e-21
1.19601 -0.499979 5.29396e-23 1.10737 -0.731886 2.11758e-22 1.19997 -0.499981 0 1.19997
-0.124987 0 0.999933 -0.477759 -5.29396e-23 0.999933 -0.487556 -1.45584e-22 1.09995 0.250008
0 1.19997 1 0 1.19997 1.7507 0 1.22203 2.50003 -1.35525e-20
1.22368 3.25 0 1.22394 4 0 1.22399 4.75 4.23516e-22 1.224
5.5 0 1.224 6.25 2.11758e-22 1.224 7 0 1.224 7.75
1.05879e-22 1.224 8.5 0 1.224 9.25 0 1.224 10 2.64698e-23
1.224 -5 4.23516e-22 1.22399 -4.24999 -4.23516e-22 1.22395 -3.49998 0 1.22374
-2.75001 0 1.22279 -2.00077 0 1.21965 -1.24997 4.23516e-22 1.19997 -0.499969
-5.29396e-23 0.999933 -0.874942 0 0.999936 -0.499979 -1.32349e-23 1.09995 -2.75001 0
1.36967 -3.18711 4.23516e-22 1.41751 -2.75001 4.23516e-22 1.4171 -2.00072 3.38813e-21 1.29692
-2.00065 0 1.41474 -1.25823 6.35275e-21 1.40014 -0.980416 0 1.39998 -0.499986
0 1.39998 0.250009 0 1.39998 1 0 1.39998 1.75054 0
1.41682 2.50002 -1.35525e-20 1.41776 3.25 0 1.41796 4 4.23516e-22 1.41799
4.75 0 1.418 5.5 0 1.418 6.25 0 1.418 7
0 1.418 7.75 0 1.418 8.5 0 1.418 9.25 0
1.418 10 0 1.418 -5 0 1.41799 -4.24999 0 1.41797
-3.49999 -4.23516e-22 1.41781 -1.24998 0 1.39998 -2.80392 1.32349e-23 1.61143 -2.75
-1.32349e-23 1.6114 -2.0003 0 1.60983 -1.25396 2.64698e-23 1.60004 -1.12789 2.64698e-23
1.59999 -0.49999 1.05879e-22 1.59999 0.250008 0 1.59999 1.00001 4.23516e-22 1.59999
1.75038 0 1.61122 2.50002 0 1.61184 3.25 -4.23516e-22 1.61197 4
-4.23516e-22 1.61199 4.75 0 1.612 5.5 0 1.612 6.25 0
1.612 7 0 1.612 7.75 5.29396e-23 1.612 8.5 2.64698e-23 1.612
9.25 -1.32349e-23 1.612 10 -1.32349e-23 1.612 -5 0 1.61199 -4.24999
0 1.61198 -3.49999 0 1.61187 -1.24999 0 1.59999 -2.75 -1.32349e-23
1.63714 -2.64195 -2.11758e-22 1.80559 -2.00012 -8.47033e-22 1.80492 -1.25741 0 1.80004
-1.19082 -7.94093e-23 1.8 -0.499992 1.05879e-22 1.79999 0.250006 2.11758e-22 1.79999 1
0 1.8 1.75023 0 1.80561 2.50001 3.38813e-21 1.80592 3.25 0
1.80599 4 0 1.806 4.75 2.11758e-22 1.806 5.5 0 1.806
6.25 0 1.806 7 0 1.806 7.75 0 1.806 8.5
2.64698e-23 1.806 9.25 0 1.806 10 0 1.806 -5 0
1.806 -4.25 -2.11758e-22 1.80599 -3.49999 0 1.80594 -2.75 -1.05879e-22 1.8057
-1.24999 0 1.8 -2 -4.76456e-22 1.98532 -1.20969 -1.65436e-23 2 -0.499993
0 2 0.250006 0 2 1 0 2 1.75 0
2 2.5 0 2 3.25 0 2 4 0 2
4.75 -1.05879e-22 2 5.5 0 2 6.25 0 2 7
5.29396e-23 2 7.75 0 2 8.5 0 2 9.25 0
2 10 -1.32349e-23 2 -5 2.21817e-18 2 -4.25 1.05879e-22 2
-3.49999 0 2 -2.74999 0 2 -1.99999 -5.29396e-23 2 -1.24999
3.30872e-24 2 0.0956945 -5.42101e-20 0.203879 0.0632748 0 0.203876 0.0625511 0
0.250042 -0.403589 6.77626e-21 0.40138 -0.405779 7.7927e-19 0.38799 -0.406379 -6.77626e-21 0.375196
-0.499567 -1.35525e-20 0.375265 0.250006 -6.50521e-19 0.375144 0.156247 0 0.375155 0.156237
9.41901e-19 0.400212 0.203129 0 0.400201 0.249796 0 0.59991 0.249852 -1.0842e-19
0.587433 0.202953 0 0.587417 0.202888 6.50521e-19 0.599901 0.625121 -6.77626e-21 0.499953
0.717439 6.77626e-21 0.504955 0.625095 6.77626e-21 0.475379 0.343596 1.0842e-19 0.599918 0.343639
0 0.574939 0.296781 0 0.574964 0.249926 0 0.574977 0.62499 -4.2826e-18
0.549927 0.624917 4.55365e-18 0.599925 0.203133 0 0.412725 -0.449046 0 0.587135
-0.496581 5.42101e-20 0.587161 0.625036 -9.32414e-18 0.40006 0.625067 1.13164e-18 0.450032 0.249704
0 0.624881 0.155871 0 0.599866 0.155839 1.95156e-18 0.624853 0.249886 1.35525e-20
0.749873 0.062411 0 0.749846 0.0624478 -4.26227e-18 0.799869 -0.312472 0 0.749804
-0.499901 -3.38813e-21 0.749824 -0.691227 0 0.30453 -0.499912 3.02221e-18 0.300065 -0.875784
-3.11708e-18 0.361353 -0.592465 -2.71051e-20 0.40036 -0.499854 0 0.350135 -0.687111 1.35525e-20
0.350117 -0.68656 -2.71051e-20 0.40021 0.437526 -1.35525e-20 0.400108 0.437522 6.77626e-21 0.350086
0.250015 -2.51399e-18 0.35011 0.625027 3.38813e-21 0.350064 -0.592287 0 0.425286 -0.498048
0 0.425444 -0.873902 5.42101e-18 0.54992 -0.496663 0 0.574746 -0.591532 0
0.574798 -0.591729 0 0.599734 -0.149108 0 0.406489 -0.149477 -5.29396e-23 0.403592
-0.149678 0 0.406489 -0.451876 -2.1684e-18 0.499977 -0.451579 0 0.487563 -0.498366
0 0.487552 -0.498515 -1.0842e-19 0.499993 0.437553 0 0.450075 0.437532 -6.07153e-18
0.425113 0.254621 -1.25361e-19 0.496697 0.26485 -5.42101e-20 0.498023 0.264831 0 0.496529
0.254636 -2.30393e-19 0.49668 0.570241 0 0.499932 0.437665 -2.71051e-20 0.474991 0.437859
-2.71051e-20 0.49988 0.437372 -1.0842e-19 0.599915 0.249722 3.25261e-19 0.649874 0.43732 -5.42101e-20
0.649899 0.624872 0 0.649914 0.624883 -3.95734e-18 0.699913 0.43734 6.83047e-18 0.699894
0.249817 0 0.699869 -0.592227 0 0.624743 -0.498071 -2.71051e-20 0.624658 -0.499769
6.77626e-21 0.69979 -0.687025 0 0.699824 -0.150854 -1.03677e-18 0.599678 -0.151059 -6.77626e-21
0.605522 -0.127339 6.77626e-21 0.605681 -0.127867 0 0.599582 -0.406139 -4.40457e-20 0.699754
-0.406113 0 0.674749 -0.499634 0 0.674774 -0.18433 -4.23516e-22 0.674527 -0.163626
-4.23516e-22 0.678958 -0.165125 0 0.674537 -0.171868 4.23516e-22 0.674524 -0.14924 3.34737e-19
0.400169 -0.125737 0 0.400165 -0.12551 0 0.393854 -0.149076 -2.11758e-22 0.393877
-0.499925 -2.61564e-18 0.325088 -0.406241 0 0.325087 -0.4062 0 0.300069 -0.124901
0 0.300062 -0.218633 -3.27294e-18 0.299673 -0.218596 1.35525e-20 0.324664 -0.124851 0
0.325085 -0.126061 7.86047e-19 0.406473 -0.0785222 1.30782e-18 0.400166 -0.126118 3.38813e-21 0.41275
-0.0785648 0 0.412729 0.240678 1.0842e-18 0.500153 0.252614 -2.1684e-19 0.498317 0.252386
1.0842e-19 0.496231 0.241035 0 0.496114 0.228892 -1.35525e-20 0.496204 0.228835 6.77626e-21
0.498715 0.229819 2.71051e-20 0.500074 0.25248 0 0.499935 0.240657 -1.6263e-19 0.500957
0.264863 0 0.500154 0.264689 0 0.500951 0.437443 0 0.549896 0.437406
[...]
POINT_DATA 2021
FIELD attributes 2
p 1 2021 float
2.00878 1.43738 2.36959 4.3616 0.0597219 0.057608 -4.2041 -6.04268 -7.69142 -6.16342 -4.31919
0.496191 0.464049 0.111522 0.326459 0.174691 0.003143 0.0269858 0.00524582 0.014186 0.00940005
0.015385 0.00470818 0.00982222 0.00015758 0.00449639 -0.00135479 0.00234491 -0.00101353 0.00216674 -0.000419888
0.00216639 0.000589446 0.0033502 0 0 0.614351 0.609899 0.609747 0.614065 0.635218
0.634322 0.705141 0.702009 0.92709 0.923804 1.64099 1.76254 1.77786 2.23602 2.47663
-4.05721 1.36736 -4.11003 0.651687 -0.10909 -6.03246 0.572002 0.442024 0.189453 0.0290211
0.00708062 0.00925236 0.00548361 0.00101982 -0.000577731 -0.000231921 -0.000373399 0.00267119 0 0.609314
0.613295 0.631907 0.692976 0.902702 1.95645 2.02916 3.12808 3.87238 7.32173 -3.30387
-1.05326 4.58158 -5.72519 -5.71728 -2.2567 0.340974 0.82814 1.03121 0.926228 0.520977
0.516777 0.847842 0.880755 0.427121 0.167015 0.0228442 0.00212442 0.00634388 0.00426091 0.000421484
-0.000916201 -0.000375261 -0.000234814 0.00287037 0 0.608623 0.612104 0.628271 0.68029 0.862271
1.85036 2.13614 5.13422 5.58824 4.82568 32.572 36.4569 52.0252 45.981 4.7641
4.90786 3.39041 3.42576 2.68662 4.09425 0.841036 0.808238 0.787773 0.805525 1.39681
1.78578 1.84558 0.992237 0.482446 0.349647 0.12758 0.0134943 0.000378021 0.00685967 0.0061086
0.00259744 0.00120865 0.00152691 0.00209703 0.00351189 0 0.607746 0.610622 0.623838 0.665415
3.252 3.75043 4.68242 4.76039 34.3581 32.6971 44.6214 50.7621 0.801694 0.781424
0.939936 1.70247 2.62708 1.14213 0.0803524 -4.87881 -5.30015 -2.74807 -0.228177 0.19108
0.0731953 -0.00562535 -0.0110221 -0.00104611 0.000830209 -0.00119371 -0.0017028 -0.000799474 0.000318439 0.00128555
0 0.606776 0.608999 0.61901 0.649437 0.740378 2.74663 1.73222 5.18852 3.29263
0.557417 -0.675509 0.698001 0.311146 0.312963 0.142954 -1.70935 0.673446 0.281636 -0.974124
-0.393638 0.0979287 0.0646554 -0.00307621 -0.0110364 -0.00114655 0.00141011 -0.000365506 -0.000864963 8.75489e-06
0.00107134 0.00157236 0 0.605811 0.607389 0.614163 0.633316 0.67691 0.692765 0.82347
1.15903 0.324627 0.622091 0.613381 0.618466 0.656658 0.625771 0.566787 0.384095 0.0596628
-0.564353 -0.377554 0.0461637 0.0591634 -0.0044955 -0.0152577 -0.00447053 -0.000802915 -0.00209305 -0.00234808
-0.00130637 -0.000125432 0.000449264 0 0.604947 0.605932 0.609742 0.566132 0.606696 0.606735
0.5907 0.495659 0.427132 0.0773399 -0.435354 -0.348749 -0.00102518 0.0479318 -0.00804352 -0.0188961
-0.00654669 -0.00179386 -0.00268956 -0.00276335 -0.00162226 -0.000376009 0.000269559 0 0.604268 0.60476
0.606199 0.495153 0.605756 0.595175 0.570386 0.458019 0.427688 0.0866878 -0.365108 -0.332852
-0.0275417 0.0428484 -0.00843935 -0.0199735 -0.0072947 -0.00220773 -0.00300883 -0.00301946 -0.00183155 -0.000558923
0.000133121 0 0.603829 0.603978 0.603857 0.599348 0.456896 0.564118 0.425537 0.0897874
-0.34274 -0.327713 -0.0358348 0.0413192 -0.00853366 -0.0203893 -0.00765188 -0.00243591 -0.00316786 -0.0031168
-0.00188647 -0.000594163 0.000119455 8.00566e-05 0.603675 0.603695 0.603014 0.59683 0.563608 0.444604
-10.2839 -11.1418 -11.7897 70.4744 60.0599 43.8755 29.67 2.93923 1.71804 4.4269
5.07449 4.13568 4.5503 6.18522 5.40117 2.0232 1.7332 2.13882 2.95503 3.6637
3.35737 3.96444 2.24192 1.90851 6.05596 56.2504 39.4451 1.93246 2.25774 3.63886
4.74287 2.16351 -4.52617 -11.202 -9.84196 -3.19027 8.46435 7.0037 11.9014 4.74901
17.4632 20.8174 9.13634 10.5165 2.5777 1.49898 1.00407 1.65466 19.73 36.9142
5.61233 39.6448 20.3292 18.8196 -58.7524 -58.533 -58.7494 68.463 68.3758 47.5623
44.7968 3.40378 3.10463 -5.05464 0.324393 0.173685 -5.10445 2.58577 3.97733 3.9391
2.85196 1.83069 1.75263 1.62109 0.946531 0.756382 -1.36005 17.0056 28.106 13.2963
7.27685 -56.5137 -56.3081 -58.7682 -58.6904 13.8767 19.1138 18.4851 -46.2773 -42.719
-44.3968 -45.1324 -58.2774 -57.5483 -57.5357 -57.6808 16.6091 15.8773 11.9997 -29.3699
-27.983 -45.3856 -37.073 -58.8715 -45.9861 -58.6923 -48.071 11.0212 4.29131 10.5311
11.8807 9.12053 9.39806 9.68741 4.51349 11.1431 0.885105 0.716764 3.71293 3.46542
4.06171 4.31549 47.7554 68.3455 -58.814 -56.4344 6.50615 11.1477 -51.4166 -52.7214
-58.4092 4.46868 6.2981 6.4672 6.49607 -31.4219 -40.0226 -49.4415 -29.7928 64.4086
60.7929 41.6566 41.406 -44.0571 -56.0508 -11.5208 -8.5696 -0.430114 -24.5246 -42.4697
42.9841 44.3107 64.3083 66.4795 -51.7661 -49.9275 -50.7028 0.321945 -9.67059 -12.7081
-11.6866 -21.667 -24.8618 -57.8321 44.041 21.8526 22.1465 11.702 12.0186 12.1924
13.1433 22.0234 44.5056 10.7975 12.4604 11.9008 13.2407 -58.6696 -58.6573 -58.1092
-58.0962 -57.487 -56.8667 -56.503 45.8201 66.8313 -58.3279 -58.565 -58.9741 -58.2358
-29.7655 -34.9554 -32.6487 -13.6577 -1.54496 -4.86537 -50.5116 -50.1551 -57.9893 -13.0531
0.181924 0.101243 -13.2828 -58.2836 -56.7859 -51.2312 -12.403 -10.1422 -3.64801 1.60383
-7.37003 -5.60341 -18.6455 -38.3781 -41.4535 -36.3451 -52.2562 -53.2582 -53.0034 -4.1253
-17.5538 -18.2994 -4.74035 -56.0878 -52.0035 -56.1196 -3.55855 -9.28035 -16.5921 -11.5662
67.5319 46.8696 -54.1766 -54.3366 -56.7725 -56.6685 -56.1792 -53.6641 -57.0674 -53.1913
-55.9556 -58.9464 -59.0812 -59.1242 -32.1298 -77.0745 -96.1046 -101.06 -103.316 -102.878
-48.6128 -50.2108 -54.2436 -48.2723 -50.0142 -98.2163 -99.4724 -71.3423 -34.377 -58.436
-59.2569 -58.9535 -56.2842 -57.1666 -57.2443 -57.1695 -57.5829 7.14969 6.08073 8.96613
-56.0305 -55.732 -55.948 -55.4333 -55.5542 -55.831 -56.2386 -55.0944 -55.0788 2.01936
1.81123 0.690516 1.19702 4.19867 4.57364 1.3372 -55.8399 -56.3152 -56.9559 5.80108
6.63818 2.78382 0.871015 3.13769 -32.0093 -38.0257 -37.2801 -31.6136 -54.4966 -54.9919
-57.922 -57.6122 -54.9314 -55.7816 -38.9498 -43.3026 -43.1155 -36.97 -46.0773 -50.117
-53.2143 -53.3637 -52.2154 123.583 131.442 146.786 146.874 -58.103 -56.2057 -56.4767
-57.8277 -57.673 4.49809 2.22653 3.12512 4.71405 -9.74483 -3.92798 -5.8728 -8.90397
-11.7866 -39.0843 -36.9012 -25.6097 -27.3261 -32.1376 -39.1031 -24.7889 -24.8236 31.0999
41.2784 52.1203 37.9277 23.0728 19.259 34.2451 26.1399 0.669947 0.828147 1.98736
34.0636 24.891 17.0654 22.1364 2.86814 3.81202 4.45878 4.56924 3.69474 6.66055
6.76682 4.59653 -9.35689 -8.24231 -1.37813 -10.2363 14.6867 9.14699 10.8222 -54.6313
-56.8769 -57.0076 -54.8258 -82.6495 -81.367 -84.6108 -47.9058 -12.6874 -18.3324 -27.593
-56.0085 -52.8432 -55.3738 -56.436 -74.0112 -73.7143 -58.3369 -59.6262 -49.4586 -47.9645
-50.212 -50.411 3.7383 3.80045 -0.635924 6.00256 5.65151 4.65503 5.32947 5.74464
6.14854 -54.1051 -53.6456 -68.7451 -67.9544 78.9993 94.0918 85.6895 112.103 106.411
88.836 90.1519 161.846 164.176 153.354 121.626 98.407 104.347 97.302 117.638
-12.8651 -26.9264 -31.2375 -5.82263 -26.1137 -52.0905 -41.722 -6.30121 93.7201 101.219
86.8025 78.2705 96.6975 88.3939 107.604 148.461 158.213 167.403 165.141 106.624
102.9 159.63 -32.6258 -7.98717 -38.3087 -28.5154 -47.701 140.206 140.075 115.599
110.58 110.241 115.505 139.599 138.982 108.13 167.228 170.832 172.004 172.295
173.708 186.645 186.834 174.814 173.266 -32.879 -40.0107 -32.837 -56.42 -50.7596
-42.5985 -41.8529 -40.5886 -25.4789 2.81725 -2.54127 -0.586579 173.386 175.33 187.186
172.358 186.503 187.146 175.218 172.166 179.595 181.759 170.108 168.876 179.892
167.875 171.092 182.417 -52.6509 -37.8796 -36.6338 -55.7259 -55.7818 -55.8787 -36.4201
-46.2714 -36.5077 -36.9591 -45.8655 -45.8348 -3.38609 -9.25166 -25.1553 -25.1854 -32.8166
-43.4643 -32.857 -32.5623 -42.9012 -21.1256 -18.8402 -20.5753 115.416 140.135 138.12
139.03 114.674 109.302 170.033 169.907 170.475 167.738 136.394 108.392 113.57
137.145 -57.1219 -54.1647 -52.8173 -52.6446 -55.6915 -46.1526 90.1264 93.3889 78.6275
-14.944 -6.22328 -6.75765 -20.8675 54.5265 56.3878 69.9897 73.6439 -55.861 -55.081
-55.3855 -55.8552 -57.0346 -57.2645 -57.4189 -57.5305 -56.1393 -56.2321 -55.8028 -55.9143
-134.898 -109.344 -77.786 -95.6532 -98.0149 -99.1349 -99.1268 -83.2381 -78.925 -92.4581
-70.5732 -85.3434 -133.027 -136.608 -128.544 -96.1465 -96.9093 -54.7887 -54.2358 -54.9273
-56.0513 -56.3401 -53.8677 -53.7841 6.83725 7.37318 13.7733 16.4076 13.8668 -50.9057
-50.1843 -45.6947 -45.9235 -46.1062 -45.9038 -45.8768 -45.6595 12.9335 12.6677 16.8788
8.25949 8.06328 9.63311 10.1167 10.1424 8.50267 7.31814 8.07826 12.4092 15.7382
13.7451 0.7873 -0.840413 -3.02994 7.03169 6.21142 5.08876 6.42495 7.13938 -52.4873
-53.3624 -56.3328 -55.658 -48.6469 -49.6158 13.6611 15.6306 17.0386 -46.7694 -49.6759
-49.8093 -46.4849 -45.6413 11.3566 11.0988 11.1414 9.5507 6.84468 -7.04536 -5.80545
5.4656 6.29498 6.26159 -48.5231 -48.8535 146.478 148.502 140.917 136.959 113.337
118.299 125.709 121.179 184.604 185.88 182.18 178.422 -55.7154 -55.65 -53.0453
-52.9535 169.635 183.356 185.055 172.992 174.448 186.569 171.027 182.142 169.623
179.276 -16.9033 -19.1786 -23.9375 -28.2051 -26.8024 -22.9119 -8.6616 -3.34208 -3.78352
-8.96705 -13.9859 -13.6181 -1.03757 -9.06828 -9.93787 -15.026 -18.1544 -8.2321 -8.98464
-24.9628 -20.2388 -9.65926 -0.782467 -3.05309 6.08395 -3.44383 6.06672 6.82951 3.35607
3.89061 4.61476 4.17607 7.7266 6.10156 3.94322 5.80109 -18.9131 -15.9978 -26.3305
-21.4653 -56.4229 -58.1626 -58.7596 -58.6237 3.01404 3.08433 5.04476 5.53045 4.28131
4.88395 -14.5834 -40.3254 -57.2564 -65.4702 -53.2894 -31.9422 -58.9372 10.7403 10.1943
10.2175 -2.481 0.187955 11.9821 17.2543 9.507 23.7772 20.665 10.4512 1.66521
6.81296 8.30953 13.1256 11.563 6.77996 -53.4724 -44.0278 -49.8976 -13.0836 -43.9223
-24.9786 -60.6406 -83.7473 108.68 92.7481 106.197 108.36 112.74 111.872 172.881
172.004 173.256 172.572 171.273 185.961 185.962 185.197 -57.9864 -58.2039 174.483
-56.2057 -56.2039 -57.1296 -57.2931 -57.0001 -55.8147 -149.808 -136.811 -136.68 -133.242
-157.395 -136.571 -132.511 -132.836 -119.457 -115.158 -80.5304 -73.1682 -73.4541 -70.8666
-119.446 -121.104 -56.7815 -55.7753 -54.6796 -57.1469 9.54152 7.17727 10.7047 8.2457
11.0281 12.0578 12.4332 13.3977 14.193 -55.2577 -54.3368 -56.3056 -55.1023 -53.1389
-52.8749 -52.9877 -54.9281 -6.00095 -0.489789 -1.42817 -4.62101 9.18112 9.55492 6.80113
5.83954 7.56181 9.54743 8.78423 6.70595 1.31315 8.15795 7.0531 6.89389 8.68874
10.4208 9.2342 12.0781 11.3564 -54.7063 -55.1339 -55.1543 -55.2796 -55.4321 -55.2876
-54.7904 -52.7527 -54.071 -54.0797 -54.1004 -51.0763 -52.4669 -73.8023 -73.0296 -57.6387
-59.9277 -77.6087 -68.443 -77.5506 -124.011 -128.605 -136.23 -79.5508 -97.6077 -107.452
-80.4124 -98.9517 128.748 113.584 148.514 151.738 -54.6156 -53.8274 -54.9534 -54.9428
-53.1499 143.888 167.874 146.147 -48.9785 -48.1445 -48.5802 -49.3526 -49.1598 -49.1778
-49.1048 -47.625 -8.06775 -9.35485 -11.8914 -11.0035 -14.8497 -17.0275 -19.1714 -16.9552
-17.8825 74.8123 85.5093 -58.5467 51.2326 76.5316 65.0012 75.5476 61.0084 13.8341
10.9368 45.5354 36.5349 8.33467 9.17559 3.62427 5.29116 5.09874 7.78239 6.70422
7.07369 7.45837 8.26293 -52.7492 -52.3045 -52.0324 -52.6233 -1.04638 -0.529237 -1.10356
2.25443 5.6981 5.13898 7.09724 6.52576 -50.9483 -51.3528 -51.0784 138.192 136.271
171.186 184.778 189.083 189.37 186.86 185.337 -55.775 -55.4792 -55.8014 -55.625
-53.1847 -45.5867 -46.4112 -47.0362 -46.2458 -46.5768 -47.865 -56.0598 -56.0831 -56.6746
-57.3224 -57.0205 -57.0047 -57.1645 -56.7742 -55.0837 -115.807 -111.44 -134.977 -111.4
-134.093 -122.236 -123.653 -133.532 -56.1555 -57.4843 -55.9225 -54.5577 13.7359 12.3608
11.3444 12.5255 12.741 13.3869 -36.7237 -36.2143 -31.412 -30.8658 -41.7095 -42.2449
-46.4228 -46.0315 -51.095 -51.1437 -45.5069 -52.1492 -51.7889 -6.207 -0.958036 -11.48
0.653772 2.09508 8.01505 7.54679 7.87364 4.28594 10.6912 7.35156 8.76812 10.2406
10.886 10.7798 10.9207 12.6919 12.3609 2.37024 12.4274 14.8274 15.999 3.89065
3.40024 3.13846 3.81775 -58.9489 -58.0984 -52.9257 -56.5295 -44.6932 -44.1638 -40.1292
-44.4907 -45.9016 -49.9488 -51.1538 -49.5963 -49.8185 -49.5779 -47.059 -52.188 -47.2035
4.20393 -48.2907 -49.5783 140.993 131.801 129.401 129.444 129.824 114.339 106.917
188.66 188.133 187.138 -50.7284 -51.0536 -1.27129 -0.703791 0.327585 -29.562 -30.477
186.056 186.891 180.368 183.328 181.874 181.503 -33.2303 -29.062 -3.032 -7.66796
-5.79117 -3.07322 -24.6754 -13.5233 -10.1098 -13.3067 -19.7478 -4.58337 80.8628 56.5131
60.847 21.067 21.4338 68.0117 110.702 10.1489 7.18754 -2.28753 -2.54278 6.85045
7.64734 7.93608 6.12044 6.57688 24.5361 16.2981 -0.414762 19.7597 -1.77609 3.47139
8.17599 8.09725 68.0171 110.205 -54.6864 -55.7944 18.1179 91.5813 108.996 100.39
92.4364 108.054 109.168 126.58 134.319 143.194 -55.8361 81.634 73.6307 50.4549
12.561 18.619 16.7903 -75.4693 -56.8641 -56.8575 -56.8607 -55.2737 -55.1927 -59.9098
-55.4686 -59.9244 -60.489 23.4601 -6.55024 5.984 10.6062 10.839 -1.4249 -1.53036
-2.65139 -55.5579 -54.0794 -1.02302 2.53483 2.84382 -57.5296 -56.9614 -56.1209 7.97679
7.66628 4.13259 -56.6108 41.6612 49.7193 -66.4701 -58.7639 17.5893 15.0923 8.98527
6.8999 5.06024 8.50925 6.95289 -54.1187 -54.0819 -52.9065 -52.829 -55.7939 -52.1893
-51.7103 -54.3932 -54.7149 -54.6992 -54.1661 -55.2997 -54.8574 -54.7175 -54.4445 4.48176
-51.701 -57.7731 -56.7382 100.516 129.146 144.712 155.172 168.09 162.921 160.733
148.736 188.241 -52.821 -53.7455 -51.9407 -7.33775 -10.37 -3.18737 -49.6664 -49.6944
-49.6602 -49.9291 -53.126 -47.2276 -48.7467 -47.5263 -47.0436 -47.7429 28.8531 20.2834
-112.262 -119.863 -119.718 -120.355 -120.7 -73.8708 -96.4575 -73.8737 13.4184 17.0713
-10.9622 12.0704 11.5136 -5.49191 -7.06573 4.09561 2.48435 0.976729 0.630605 -0.640239
-2.25537 -1.00342 4.13673 4.51958 0.591392 2.83254 4.49135 2.40151 1.31854 13.3492
17.6759 -50.0524 5.49916 12.7811 8.51787 16.5038 8.4936 11.1952 14.2188 15.9952
4.79303 4.99931 6.50486 5.92124 -2.09947 -4.03033 -6.29583 -6.19658 4.8947 1.66585
4.38125 9.44846 15.3516 16.5506 8.23475 5.68063 3.04791 2.73342 7.19397 10.6713
11.3261 11.9691 11.1097 5.71985 -3.56441 5.59426 -2.80383 3.21209 -3.57359 2.45361
11.0312 8.3511 12.4151 7.01158 9.50827 11.4367 10.8283 10.5273 7.97957 8.657
9.18083 9.43115 7.94094 7.39859 7.41687 6.05186 -5.48232 -8.99809 -7.21123 6.52447
5.93018 8.01433 6.28595 -9.22644 -10.9976 1.09222 7.08959 5.90915 -1.67749 5.69123
-137.057 -137.894 -138.071 10.3002 -55.5902 -54.5354 -54.5862 5.2434 9.92248 5.31061
8.38836 11.0203 -55.7458 -55.7091 -55.0719 -54.7581 -60.9617 -60.4615 -60.9506 -69.0057
-116.026 -119.851 -113.712 -120.571 -48.9262 -49.4517 -47.4325 -47.1352 -47.3961 -47.1108
-14.6464 -14.6457 -17.0641 -52.5558 -52.3715 -52.1316 5.13586 1.50209 4.98805 4.95757
-51.9322 -52.3627 -52.4856 141.749 151.102 -55.2774 -50.7176 13.3906 13.9752 11.6005
7.20542 11.4715 18.7592 4.2228 3.33854 4.68263 3.6813 -53.2429 -57.2361 -57.0394
-55.2691 7.76924 15.0989 11.1389 4.09846 4.24926 10.1073 8.86259 9.55221 8.65669
10.4404 12.4517 10.3057 5.82893 8.59692 8.24365 -54.0903 -50.1108 -48.4973 91.2326
80.2645 84.2277 66.7578 72.742 -4.79895 -2.91197 0.337406 -1.4399 7.65357 8.16476
7.70338 8.29555 8.05171 7.5469 7.09478 116.834 106.797 94.7561 -73.7983 -57.2286
-55.937 -54.8207 -54.6328 -54.2608 -54.2255 163.48 139.762 161.889 161.999 7.73002
4.61195 10.7086 11.4156 7.2202 8.56427 7.44845 6.92004 6.17087 2.74632 -2.40762
4.77077 5.41348 5.99862 4.37433 6.6824 14.5015 9.08726 -12.8732 15.6345 14.3073
7.64115 10.7599 16.0318 9.16246 -12.7033 -13.6262 -11.7002 -2.85737 -4.90212 -13.2176
7.24132 5.30431 -14.7464 -16.3683 7.2104 4.86701 -1.01777 -3.91529 -54.9719 -45.9107
13.1608 1.94003 0.26263 -0.135001 6.00222 5.55764 6.49017 6.08077 6.03735 5.62379
0.338651 6.29477 6.92802 -0.404213 5.75071 4.76987 7.22422 6.71413 6.13909 106.204
86.6727 122.021 123.806 5.22564 4.95181 3.48587 -55.1844 5.15503 6.1467 5.92341
-9.57011 -12.5438 -0.182957 6.30261 6.79404 5.43213 8.11442 5.24269 6.93517 3.92588
37.2315 -53.1648 -55.111 -54.6329 -54.5766 -54.6551 -2.89003 -4.26064 -12.6027 -12.4714
-12.4936 -3.44646 9.42575 3.13528 5.99308 7.08704 2.60614 2.38803 0.110171 -0.860411
-10.9119 -5.20939 -4.10562 -11.2925 -4.1702 -12.1714 5.63334 -11.3968 -12.4291 -2.44448
1.22644 6.39922 6.40882 5.83541 8.91627 0.284876 6.70705 -3.10237 -1.09404 4.38117
-0.740011 7.28919 4.90272 -9.88819 9.0714 -0.636084 6.18957 1.05092 1.44749 4.84289
5.19968 4.2845 4.99928 3.13808 7.70818 8.95615 5.50316 6.12028 0.987364 3.47779
11.1379 5.57723 0.852287 -0.544627 3.65957 173.148 176.973 176.115 181.028 169.127
168.096 172.677 179.945 180.937 69.6208 73.8146 54.9949 -56.1676 -41.4373 -38.5513
-36.8141 -30.902 -43.8116 -51.8789 -51.5275 -55.283 -46.7895 100.752 154.472 162.111
155.251 146.988 -56.6316 -56.2276 -56.5649 -56.3357 -55.8438 -56.2958 -54.9262 -55.2303
-55.0714 4.07117 -0.214793 171.241 -18.3069 186.017 190.264 189.412 -51.2728 -47.2351
182.753 185.883 186.059 -16.3822 -51.0659 85.2663 -54.9832 -55.1152 -55.3809 -55.3408
-49.4776 189.385 -2.30175 189.504 185.524 189.098 7.40071 -64.2813 110.603 109.912
-55.9102 4.63686 -51.755 -53.0593 -51.8679 -138.285 138.733 -54.8254 159.197 -51.9895
-120.78 -120.698 72.272 6.99612 2.63758 168.083 164.696 -15.4144 139.847 191.108
190.003 185.407 189.455 190.792 189.788 172.797 191.163 186.784 189.958 191.198
0.614367 0.609905 0.635208 0.704271 0.918055 1.62158 2.20714 -3.98566 1.35443 0.0249021
-4.09919 -5.86851 0.408936 0.0900889 -0.00187173 0.00504663 0.0101338 0.00557195 0.00100743 -0.000556391
-0.000275841 0.000256995 0.00115816 0.000615385 -54.0701 -52.3468 -134.048 -134.603 -47.9618 -48.4162
-49.078 -47.8037 -48.3003 -49.0048 -49.6556 -47.3124 -95.0161 -74.6456 -48.7969 -47.1638
-74.0846 -48.7209 -51.1788 -51.5339 -50.6515 -99.6086 -111.249 -129.546 -119.849 -119.668

U 3 2021 float
20.0062 -0.0457866 -0.215773 20.0438 -0.0307557 -0.0739941 19.9291 -0.00645452 -0.0964582 19.9356 -0.0558055
-0.606386 20.0175 -0.0594871 0.0399641 20.0178 -0.059382 0.0399971 20.168 -0.0784023 0.0575153
20.2328 -0.0865942 0.0655496 20.2783 -0.0915804 0.149283 20.2907 -0.11649 0.263558 20.2097
-0.117743 0.20841 19.9545 -0.0473886 0.0198802 19.9967 -0.0548125 0.0183746 20.0037 -0.0530792
0.00698361 19.853 -0.0246378 0.0177144 19.8518 -0.0214028 0.014181 20.0059 -0.0527811 0.00189585
19.8542 -0.0199872 0.00970481 20.0043 -0.0519608 0.000516296 19.8533 -0.0183337 0.00881054 20.0026
-0.0511384 -1.47867e-05 19.852 -0.016783 0.00851242 20.0011 -0.0503782 -0.000294545 19.8509 -0.0154498
0.00827937 19.9996 -0.0496946 -0.000474928 19.8498 -0.0142901 0.00806412 19.9979 -0.0490385 -0.00059988
19.8487 -0.0132332 0.00787602 19.9962 -0.0483941 -0.000696805 19.8476 -0.0122725 0.00767695 19.9946
-0.0477637 -0.00073138 19.8465 -0.0113924 0.00758707 19.9926 -0.047113 -0.000821113 19.8455 -0.0104666
0.00730807 19.845 -0.00998484 0.00700665 19.9923 -0.0469049 -0.000861042 19.9996 -0.000342257 3.13035e-05
20 0 0 20 0 0 19.9996 -0.00034234 7.87536e-05 19.9983
-0.000790369 9.38857e-05 19.9984 -0.000800017 0.000278796 19.9942 -0.00155589 0.00036796 19.9941 -0.00152053
0.000999599 19.9788 -0.00280657 0.000335676 19.9796 -0.00313031 0.00357644 19.9464 -0.00547291 -0.00905533
19.9363 -0.00622187 -0.00796318 19.9389 0.00226873 -0.0143195 19.9277 -0.00545985 -0.0294949 19.9061
0.00522672 -0.0609822 20.2332 -0.0727902 0.00184097 20.0485 -0.0289159 -0.0566292 20.2353 -0.0718756
0.00510749 19.9271 -0.089368 0.030466 20.0246 -0.11884 0.0818548 20.2325 -0.0865626 0.0650308
19.855 -0.0298707 0.0234306 19.3073 0.12022 0.010093 19.3394 0.117651 0.0112296 19.3674
0.111912 0.0112965 19.3886 0.107617 0.0119895 19.4069 0.103829 0.0125002 19.4238 0.100232
0.0126807 19.4398 0.096832 0.0126895 19.4548 0.0936322 0.01262 19.4691 0.0905817 0.0124817
19.4822 0.0876959 0.0123691 19.4969 0.084877 0.0120863 19.5057 0.0834274 0.0118254 20
0 0 19.9996 -0.000342924 0.000137428 19.9985 -0.000798484 0.000490422 19.9945 -0.00152638
0.00171881 19.9801 -0.00325306 0.0060309 19.9198 -0.00878004 0.0107344 19.9195 -0.00794085 0.00100261
19.85 -0.0165968 -0.0957109 19.7934 -0.0205272 -0.0681318 19.9552 -0.050967 -1.02403 20.4349
-0.0676038 -0.935016 20.216 -0.0534267 -0.509141 19.9304 -0.0558247 -0.635876 20.3093 -0.164381
0.452871 20.3097 -0.165269 0.456329 20.0989 -0.250679 0.580491 19.9893 -0.239797 0.299689