# vtk DataFile Version 2.0
sampleSurface
ASCII
DATASET POLYDATA
POINTS 2021 float
-0.500032 0 0.11501 -0.499951 3.38813e-21 0.0392727 -0.789037 8.47033e-21 0.120673 -0.500013 -1.35525e-20
0.193965 1.00003 0 0.0485099 1.00003 0 0.0478584 0.475202 0 0.0353615
0.250044 1.41878e-20 0.0305359 0.2506 -5.42101e-20 0.117067 0.251301 0 0.203885 0.364989
0 0.203772 1.75002 0 0.113255 1.75002 0 0.0564279 2.50001 6.89146e-18
0.059229 2.21354 0 0.250758 2.50001 0 0.252875 3.25001 -3.47927e-17 0.0598775
3.25001 -1.69407e-21 0.253888 4.00001 5.60566e-18 0.0599857 4 0 0.253986 4.75
-1.79088e-17 0.0599988 4.75 8.47033e-22 0.253998 5.5 -2.79246e-17 0.0599999 5.5 -4.23516e-22
0.253999 6.25 1.01187e-17 0.06 6.25 0 0.254 7 2.93732e-17 0.06
7 0 0.254 7.75 -2.65294e-17 0.06 7.75 0 0.254 8.5
1.8923e-17 0.06 8.5 0 0.254 9.25 -2.88552e-17 0.06 9.25 -5.29396e-23
0.254 10 -2.64698e-23 0.254 10 0 0.06 -4.24997 0 0.0599042
-5 0 0.0599861 -5 0 0.253986 -4.24997 0 0.253912 -3.49995
0 0.0593815 -3.49994 0 0.253441 -2.74993 0 0.0570188 -2.74991 0
0.251316 -1.99991 0 0.0492276 -1.99987 0 0.242776 -1.24992 -1.69407e-21 0.03
-1.24985 1.23328e-17 0.222327 -1.24989 3.38813e-21 0.125756 -0.874924 2.08116e-17 0.03 -0.874929
0 0.122356 -0.124951 -8.47033e-22 0.03 -0.499941 0 0.03 -0.124922 -8.47033e-22
0.0385291 1.00021 0 0.231242 0.625368 0 0.203537 0.25004 -2.11758e-22 0.03
1.75003 0 0.247334 1.92873 1.69407e-21 0.441438 2.50001 0 0.447397 3.25
-1.69407e-21 0.447898 4 0 0.447986 4.75 0 0.447997 5.5 -4.23516e-22
0.447999 6.25 4.23516e-22 0.447999 7 0 0.448 7.75 -1.05879e-22 0.448
8.5 0 0.448 9.25 0 0.448 10 -2.64698e-23 0.448 -5
-8.47033e-22 0.447985 -4.24997 0 0.447919 -3.49993 0 0.4475 -2.74988 0
0.445609 -1.9998 6.77626e-21 0.437758 -1.24969 1.61411e-17 0.417681 -1.24976 -6.77626e-21 0.31973
-0.875161 7.70461e-18 0.216228 -0.875403 0 0.312476 -0.499924 -8.74138e-19 0.250039 -0.312433
0 0.250037 -0.312436 0 0.200025 -0.499924 0 0.200026 0.250062 3.38813e-21
0.24921 0.250039 -1.69407e-21 0.250046 0.250032 0 0.300069 0.437526 3.05948e-18 0.300066
0.625026 0 0.30005 1.00072 -8.23994e-18 0.326497 1.00196 0 0.423 1.75013
0 0.439575 1.75013 1.77877e-20 0.448245 1.00135 0 0.537141 1.00002 0
0.61834 1.74999 2.71051e-20 0.633055 2.49999 -3.38813e-21 0.641448 3.25 0 0.641907
4 -1.69407e-21 0.641985 4.75 -8.47033e-22 0.641996 5.5 -4.23516e-22 0.641998 6.25
0 0.641999 7 0 0.641999 7.75 0 0.642 8.5 5.29396e-23
0.642 9.25 -5.29396e-23 0.642 10 0 0.642 -5 0 0.641985
-4.24997 -1.69407e-21 0.641926 -3.49993 0 0.641557 -2.74988 0 0.639897 -1.99989
6.77626e-21 0.63382 -1.25099 2.55465e-18 0.614606 -1.25 -2.71051e-20 0.515981 -0.878244 0
0.50789 -0.875961 2.71051e-20 0.459694 -0.875609 0 0.410432 -0.498432 0 0.400603
-0.498071 -1.70762e-18 0.413126 -0.450805 0 0.413349 -0.45095 0 0.400955 0.250009
1.89735e-19 0.412703 0.25 2.71051e-20 0.425212 0.296872 1.00289e-18 0.425187 0.343754 -2.71051e-20
0.425153 0.343763 0 0.400146 0.250006 0 0.400175 1.00162 1.41488e-17 0.520353
-2 4.23516e-22 0.820145 -2.09502 -2.11758e-22 0.830091 -2 0 0.829497 -1.25123
0 0.813251 -1.25126 0 0.713737 -1.25101 6.77626e-21 0.62198 1.00059 0
0.714169 1.00094 0 0.809205 1.75018 0 0.82775 2.5 0 0.835521
3.25 0 0.835917 4 -1.69407e-21 0.835986 4.75 -8.47033e-22 0.835996 5.5
0 0.835998 6.25 0 0.835999 7 0 0.835999 7.75 0
0.836 8.5 0 0.836 9.25 0 0.836 10 0 0.836
-5 -8.47033e-22 0.835986 -4.24997 0 0.835935 -3.49995 0 0.835616 -2.74991
0 0.83419 -0.970118 0 0.703382 -0.87455 0 0.699864 -0.874264 -2.71051e-20
0.649852 -0.874033 -2.71051e-20 0.599873 -0.49698 0 0.599585 -0.497345 -9.21572e-19 0.612046
-0.450014 0 0.611892 -0.44938 2.71051e-20 0.599454 -2.00002 0 0.84097 -1.84639
-3.38813e-21 1.02215 -1.25185 0 1.01276 -0.896512 -3.38813e-21 0.900668 -0.908183 6.77626e-21
0.801076 -0.904022 -1.86347e-20 1.00093 0.624925 0 0.799916 0.249931 0 0.799891
0.249978 0 0.899916 0.249997 0 0.999939 0.999987 0 0.999957 1.75061
-2.1684e-19 1.02409 2.50003 0 1.0296 3.25 -1.69407e-21 1.02993 4 0
1.02999 4.75 0 1.03 5.5 0 1.03 6.25 2.11758e-22 1.03
7 0 1.03 7.75 0 1.03 8.5 5.29396e-23 1.03 9.25
0 1.03 10 0 1.03 -5 0 1.02999 -4.24998 0
1.02994 -3.49996 -8.47033e-22 1.02968 -2.74996 0 1.02849 -2.00026 0 1.02458
-0.87482 0 0.799893 -0.87491 0 0.899919 -0.49993 0 0.799862 -0.499958
7.6233e-19 0.849889 -0.312476 0 0.849885 -0.312472 0 0.799853 -1.25001 8.04681e-21
1.19601 -0.499979 5.29396e-23 1.10737 -0.731886 2.11758e-22 1.19997 -0.499981 0 1.19997
-0.124987 0 0.999933 -0.477759 -5.29396e-23 0.999933 -0.487556 -1.45584e-22 1.09995 0.250008
0 1.19997 1 0 1.19997 1.7507 0 1.22203 2.50003 -1.35525e-20
1.22368 3.25 0 1.22394 4 0 1.22399 4.75 4.23516e-22 1.224
5.5 0 1.224 6.25 2.11758e-22 1.224 7 0 1.224 7.75
1.05879e-22 1.224 8.5 0 1.224 9.25 0 1.224 10 2.64698e-23
1.224 -5 4.23516e-22 1.22399 -4.24999 -4.23516e-22 1.22395 -3.49998 0 1.22374
-2.75001 0 1.22279 -2.00077 0 1.21965 -1.24997 4.23516e-22 1.19997 -0.499969
-5.29396e-23 0.999933 -0.874942 0 0.999936 -0.499979 -1.32349e-23 1.09995 -2.75001 0
1.36967 -3.18711 4.23516e-22 1.41751 -2.75001 4.23516e-22 1.4171 -2.00072 3.38813e-21 1.29692
-2.00065 0 1.41474 -1.25823 6.35275e-21 1.40014 -0.980416 0 1.39998 -0.499986
0 1.39998 0.250009 0 1.39998 1 0 1.39998 1.75054 0
1.41682 2.50002 -1.35525e-20 1.41776 3.25 0 1.41796 4 4.23516e-22 1.41799
4.75 0 1.418 5.5 0 1.418 6.25 0 1.418 7
0 1.418 7.75 0 1.418 8.5 0 1.418 9.25 0
1.418 10 0 1.418 -5 0 1.41799 -4.24999 0 1.41797
-3.49999 -4.23516e-22 1.41781 -1.24998 0 1.39998 -2.80392 1.32349e-23 1.61143 -2.75
-1.32349e-23 1.6114 -2.0003 0 1.60983 -1.25396 2.64698e-23 1.60004 -1.12789 2.64698e-23
1.59999 -0.49999 1.05879e-22 1.59999 0.250008 0 1.59999 1.00001 4.23516e-22 1.59999
1.75038 0 1.61122 2.50002 0 1.61184 3.25 -4.23516e-22 1.61197 4
-4.23516e-22 1.61199 4.75 0 1.612 5.5 0 1.612 6.25 0
1.612 7 0 1.612 7.75 5.29396e-23 1.612 8.5 2.64698e-23 1.612
9.25 -1.32349e-23 1.612 10 -1.32349e-23 1.612 -5 0 1.61199 -4.24999
0 1.61198 -3.49999 0 1.61187 -1.24999 0 1.59999 -2.75 -1.32349e-23
1.63714 -2.64195 -2.11758e-22 1.80559 -2.00012 -8.47033e-22 1.80492 -1.25741 0 1.80004
-1.19082 -7.94093e-23 1.8 -0.499992 1.05879e-22 1.79999 0.250006 2.11758e-22 1.79999 1
0 1.8 1.75023 0 1.80561 2.50001 3.38813e-21 1.80592 3.25 0
1.80599 4 0 1.806 4.75 2.11758e-22 1.806 5.5 0 1.806
6.25 0 1.806 7 0 1.806 7.75 0 1.806 8.5
2.64698e-23 1.806 9.25 0 1.806 10 0 1.806 -5 0
1.806 -4.25 -2.11758e-22 1.80599 -3.49999 0 1.80594 -2.75 -1.05879e-22 1.8057
-1.24999 0 1.8 -2 -4.76456e-22 1.98532 -1.20969 -1.65436e-23 2 -0.499993
0 2 0.250006 0 2 1 0 2 1.75 0
2 2.5 0 2 3.25 0 2 4 0 2
4.75 -1.05879e-22 2 5.5 0 2 6.25 0 2 7
5.29396e-23 2 7.75 0 2 8.5 0 2 9.25 0
2 10 -1.32349e-23 2 -5 2.21817e-18 2 -4.25 1.05879e-22 2
-3.49999 0 2 -2.74999 0 2 -1.99999 -5.29396e-23 2 -1.24999
3.30872e-24 2 0.0956945 -5.42101e-20 0.203879 0.0632748 0 0.203876 0.0625511 0
0.250042 -0.403589 6.77626e-21 0.40138 -0.405779 7.7927e-19 0.38799 -0.406379 -6.77626e-21 0.375196
-0.499567 -1.35525e-20 0.375265 0.250006 -6.50521e-19 0.375144 0.156247 0 0.375155 0.156237
9.41901e-19 0.400212 0.203129 0 0.400201 0.249796 0 0.59991 0.249852 -1.0842e-19
0.587433 0.202953 0 0.587417 0.202888 6.50521e-19 0.599901 0.625121 -6.77626e-21 0.499953
0.717439 6.77626e-21 0.504955 0.625095 6.77626e-21 0.475379 0.343596 1.0842e-19 0.599918 0.343639
0 0.574939 0.296781 0 0.574964 0.249926 0 0.574977 0.62499 -4.2826e-18
0.549927 0.624917 4.55365e-18 0.599925 0.203133 0 0.412725 -0.449046 0 0.587135
-0.496581 5.42101e-20 0.587161 0.625036 -9.32414e-18 0.40006 0.625067 1.13164e-18 0.450032 0.249704
0 0.624881 0.155871 0 0.599866 0.155839 1.95156e-18 0.624853 0.249886 1.35525e-20
0.749873 0.062411 0 0.749846 0.0624478 -4.26227e-18 0.799869 -0.312472 0 0.749804
-0.499901 -3.38813e-21 0.749824 -0.691227 0 0.30453 -0.499912 3.02221e-18 0.300065 -0.875784
-3.11708e-18 0.361353 -0.592465 -2.71051e-20 0.40036 -0.499854 0 0.350135 -0.687111 1.35525e-20
0.350117 -0.68656 -2.71051e-20 0.40021 0.437526 -1.35525e-20 0.400108 0.437522 6.77626e-21 0.350086
0.250015 -2.51399e-18 0.35011 0.625027 3.38813e-21 0.350064 -0.592287 0 0.425286 -0.498048
0 0.425444 -0.873902 5.42101e-18 0.54992 -0.496663 0 0.574746 -0.591532 0
0.574798 -0.591729 0 0.599734 -0.149108 0 0.406489 -0.149477 -5.29396e-23 0.403592
-0.149678 0 0.406489 -0.451876 -2.1684e-18 0.499977 -0.451579 0 0.487563 -0.498366
0 0.487552 -0.498515 -1.0842e-19 0.499993 0.437553 0 0.450075 0.437532 -6.07153e-18
0.425113 0.254621 -1.25361e-19 0.496697 0.26485 -5.42101e-20 0.498023 0.264831 0 0.496529
0.254636 -2.30393e-19 0.49668 0.570241 0 0.499932 0.437665 -2.71051e-20 0.474991 0.437859
-2.71051e-20 0.49988 0.437372 -1.0842e-19 0.599915 0.249722 3.25261e-19 0.649874 0.43732 -5.42101e-20
0.649899 0.624872 0 0.649914 0.624883 -3.95734e-18 0.699913 0.43734 6.83047e-18 0.699894
0.249817 0 0.699869 -0.592227 0 0.624743 -0.498071 -2.71051e-20 0.624658 -0.499769
6.77626e-21 0.69979 -0.687025 0 0.699824 -0.150854 -1.03677e-18 0.599678 -0.151059 -6.77626e-21
0.605522 -0.127339 6.77626e-21 0.605681 -0.127867 0 0.599582 -0.406139 -4.40457e-20 0.699754
-0.406113 0 0.674749 -0.499634 0 0.674774 -0.18433 -4.23516e-22 0.674527 -0.163626
-4.23516e-22 0.678958 -0.165125 0 0.674537 -0.171868 4.23516e-22 0.674524 -0.14924 3.34737e-19
0.400169 -0.125737 0 0.400165 -0.12551 0 0.393854 -0.149076 -2.11758e-22 0.393877
-0.499925 -2.61564e-18 0.325088 -0.406241 0 0.325087 -0.4062 0 0.300069 -0.124901
0 0.300062 -0.218633 -3.27294e-18 0.299673 -0.218596 1.35525e-20 0.324664 -0.124851 0
0.325085 -0.126061 7.86047e-19 0.406473 -0.0785222 1.30782e-18 0.400166 -0.126118 3.38813e-21 0.41275
-0.0785648 0 0.412729 0.240678 1.0842e-18 0.500153 0.252614 -2.1684e-19 0.498317 0.252386
1.0842e-19 0.496231 0.241035 0 0.496114 0.228892 -1.35525e-20 0.496204 0.228835 6.77626e-21
0.498715 0.229819 2.71051e-20 0.500074 0.25248 0 0.499935 0.240657 -1.6263e-19 0.500957
0.264863 0 0.500154 0.264689 0 0.500951 0.437443 0 0.549896 0.437406
[...]
POINT_DATA 2021
FIELD attributes 2
p 1 2021 float
1.83106 1.27664 2.25436 4.15827 0.108207 0.105994 -4.1692 -6.01349 -7.65184 -6.02712 -4.19911
0.498432 0.46545 0.0947446 0.319325 0.160538 0.0048019 0.0288924 0.024179 0.0331261 0.0262553
0.0332994 0.0120462 0.0186913 0.00501741 0.0103557 0.00836201 0.0120525 0.0129198 0.015248 0.0121234
0.0134356 0.00751215 0.00896297 0 0 0.595656 0.591274 0.591122 0.595371 0.616084
0.615208 0.684476 0.68146 0.90112 0.898402 1.59258 1.71548 1.72388 2.15077 2.37998
-4.15026 1.2087 -4.20511 0.727682 -0.0257749 -6.00334 0.576227 0.455457 0.187528 0.0378882
0.0305065 0.031754 0.0189219 0.0102116 0.010728 0.0132071 0.010831 0.00807832 0 0.590693
0.594604 0.612844 0.672722 0.878975 1.91536 1.98072 3.03333 3.77761 7.07613 -3.65111
-1.33162 4.37786 -5.47912 -5.46919 -2.00354 0.382675 0.887832 1.12919 0.97756 0.53921
0.535427 0.722773 0.73871 0.454641 0.174758 0.0345625 0.024488 0.0277118 0.0173083 0.00902752
0.00920608 0.0118408 0.0103845 0.00851768 0 0.59001 0.593428 0.609293 0.660453 0.840854
1.82424 2.09977 5.07909 5.51723 4.74818 32.3324 36.222 51.7398 45.6863 4.82527
4.91402 3.45887 3.45296 2.67488 4.18311 0.719523 0.788854 0.768476 0.786243 1.38739
1.76957 1.8202 0.941457 0.486962 0.371137 0.133884 0.0187498 0.0137353 0.020878 0.0140544
0.00703372 0.00742628 0.0105146 0.0106404 0.00849034 0 0.589146 0.591971 0.604961 0.646022
3.24775 3.75022 4.6658 4.72937 34.4256 32.8035 44.8398 50.9345 0.782494 0.765666
0.932448 1.70718 2.63763 1.14513 0.0607731 -4.88138 -5.28461 -2.73152 -0.222431 0.208434
0.0793013 -0.00418612 -0.00313416 0.00956254 0.00746734 0.00241637 0.00336909 0.00703915 0.00823199 0.00633279
0 0.588192 0.590377 0.600243 0.630477 0.72248 2.75913 1.73761 5.36576 3.42027
0.763879 -0.307538 0.686961 0.338176 0.32023 0.15845 -1.64802 0.729974 0.309702 -0.964948
-0.39148 0.112369 0.0721118 -0.00206781 -0.00516866 0.00877017 0.00871794 0.00388923 0.00413732 0.0073296
0.0085335 0.00647203 0 0.587241 0.588796 0.595507 0.614739 0.65976 0.681649 0.879694
1.1629 0.352581 0.60374 0.594939 0.600188 0.639707 0.609123 0.555266 0.378508 0.0645471
-0.559358 -0.376999 0.0576863 0.0674864 -0.00304146 -0.0104502 0.00485982 0.00686888 0.0025115 0.00235232
0.00519666 0.00644853 0.00466263 0 0.586389 0.587366 0.591181 0.554668 0.588589 0.588658
0.574374 0.483939 0.417613 0.0790099 -0.432162 -0.348786 0.00832084 0.0562114 -0.00598719 -0.0145141
0.00218806 0.00595453 0.00219269 0.00180358 0.004287 0.00548932 0.00396119 0 0.585716 0.586212
0.587708 0.483458 0.587694 0.577475 0.554259 0.446126 0.416763 0.0865652 -0.362981 -0.333144
-0.0194424 0.051068 -0.00557124 -0.0155089 0.00100829 0.00542447 0.00203685 0.00156546 0.00380666 0.00494204
0.00361859 0 0.585277 0.585439 0.58541 0.581384 0.445045 0.548063 0.414249 0.0891321
-0.341007 -0.328161 -0.0280848 0.0496152 -0.00529704 -0.0158923 0.000421624 0.00506209 0.00188853 0.00148172
0.00369217 0.00482458 0.00359701 0.000838113 0.585121 0.58516 0.584583 0.578903 0.547559 0.432711
-10.1336 -10.9887 -11.4867 70.1367 59.6868 43.4897 29.3942 3.13878 2.33031 5.0404
5.25874 3.56372 3.47526 4.78795 4.71204 1.76999 1.51223 1.92344 2.481 2.673
1.97345 2.46913 1.90828 1.66321 6.20623 56.3769 39.493 1.86924 2.08168 3.82726
4.26952 2.43597 -4.49528 -11.1647 -9.79982 -2.49566 8.74062 6.86145 11.6596 4.65387
17.2947 20.5572 8.99685 10.3864 2.49183 1.49942 1.21923 1.65603 19.5687 36.6955
5.56695 39.6566 20.3001 18.8202 -57.4313 -57.3093 -57.4584 68.3099 68.1961 47.4018
44.66 3.37988 3.07476 -6.55498 -0.716999 -0.849567 -6.6064 2.3223 3.85155 3.65113
2.56573 2.00711 1.67143 1.50235 0.887384 0.7215 -1.26998 17.0339 28.2342 13.5173
7.30949 -54.7003 -54.8657 -58.8726 -58.6602 14.449 19.7995 18.7186 -44.0692 -41.0242
-42.7168 -43.2494 -57.1332 -55.087 -55.5339 -56.796 16.3439 15.4768 11.6519 -29.423
-28.6158 -46.3293 -37.0006 -56.3337 -42.057 -55.9917 -43.7103 9.77821 3.09099 9.51049
10.7871 8.19562 8.38153 8.62529 3.21273 9.89896 -0.166167 -0.427698 3.0881 2.96484
3.68953 3.76571 47.6376 68.2219 -58.0649 -53.7145 5.10952 9.91593 -52.1682 -52.9489
-57.0478 3.8072 4.89836 5.92583 6.04921 -30.6079 -39.5494 -46.3345 -27.9213 64.1677
60.5368 41.4386 41.2054 -40.8963 -54.3079 -10.9247 -7.28576 0.118682 -22.7903 -42.1327
42.9405 44.2989 64.3407 66.4678 -52.9137 -51.3523 -51.7772 0.594938 -10.1187 -13.4963
-11.8696 -22.0975 -26.1545 -58.0657 43.8678 21.7237 22.0385 11.5902 11.8881 12.1077
13.0394 21.9392 44.4123 10.7748 12.4222 11.846 13.1678 -57.8168 -57.6812 -55.8593
-55.8363 -57.1712 -56.9768 -56.7305 45.6259 66.6081 -57.6103 -56.6697 -57.4951 -57.5547
-25.4478 -29.9417 -27.4051 -9.43274 0.974793 -2.60873 -46.3923 -45.6566 -55.6991 -8.72423
2.59353 2.5864 -8.87831 -56.8533 -54.4429 -47.7854 -8.1335 -6.09764 -0.283694 4.01113
-7.04586 -6.59341 -19.3799 -38.8809 -41.7043 -36.8082 -52.1414 -52.5306 -52.9651 -6.45665
-19.8281 -20.3053 -6.94157 -54.5258 -51.3041 -54.8581 -5.65788 -11.4314 -18.4299 -7.3733
67.4792 46.8014 -49.2131 -49.2129 -53.6503 -53.8528 -52.8838 -49.0416 -54.3878 -53.1722
-53.1766 -57.2618 -57.6979 -57.7239 -27.0587 -70.2493 -87.7456 -91.9176 -91.7594 -91.1872
-39.8631 -50.9731 -55.1199 -48.0533 -51.2112 -100.011 -101.465 -72.9118 -35.5093 -55.9372
-56.7671 -57.6211 -55.3897 -56.1593 -56.6567 -56.5088 -56.7847 8.21138 7.59897 10.0945
-54.3634 -54.4493 -54.5767 -53.7248 -53.9151 -53.2318 -53.4919 -52.0038 -51.9908 1.26927
0.52921 -0.64853 0.443713 2.2516 2.58984 -0.694087 -53.3126 -54.2327 -54.3628 5.83201
6.59774 2.95943 1.13988 3.30221 -26.4575 -32.7595 -31.7628 -25.6646 -49.0392 -50.0926
-55.6175 -55.2056 -51.8709 -53.2005 -37.2454 -41.1559 -41.3027 -35.8453 -46.445 -50.1953
-49.4807 -49.114 -49.1533 124.376 132.352 147.482 147.56 -55.8383 -56.5558 -56.5642
-56.6229 -57.0393 7.09529 5.37311 6.40014 7.63814 -11.1785 -5.41815 -7.96377 -10.7258
-13.3681 -37.3937 -35.7841 -25.6822 -27.5265 -31.7141 -37.414 -18.8796 -19.4036 31.9024
42.2403 52.8717 38.1702 23.2563 23.3402 36.6085 28.1109 0.830868 0.991255 2.08926
33.6356 24.4692 16.483 21.5915 1.60049 2.97112 3.20284 3.05536 2.6934 5.27346
5.05148 2.75403 -8.16587 -6.63793 -1.01586 -9.40688 14.7351 9.15842 10.8189 -53.8988
-57.055 -57.1761 -54.0641 -75.4019 -74.2709 -77.131 -45.8145 -10.1722 -16.6029 -23.3797
-54.7759 -51.8372 -55.2765 -56.0756 -75.9337 -75.6936 -60.0633 -61.2471 -44.9648 -48.2014
-50.9403 -50.4965 1.55352 1.62887 -2.19665 5.27401 4.7662 3.36546 4.10823 5.38926
5.48804 -54.4875 -53.061 -63.1427 -62.4449 78.6732 93.7677 85.3447 111.816 106.115
88.5319 89.8555 161.694 164.027 153.177 121.355 98.1305 104.092 97.005 117.343
-10.8005 -24.1872 -27.5627 -3.90394 -23.7145 -51.2141 -39.2335 -4.55153 94.5194 101.9
87.2746 78.7702 96.9379 88.7517 108.158 148.953 158.519 167.653 165.313 106.693
103.044 160.027 -34.2638 -7.95621 -39.7965 -30.1571 -49.7649 140.087 139.936 115.439
110.436 110.032 115.312 139.425 138.797 107.898 167.104 170.715 171.886 172.192
173.627 186.606 186.801 174.734 173.183 -27.3761 -35.2034 -27.4824 -54.4601 -47.2362
-38.0798 -37.1739 -35.7095 -20.5527 5.23139 0.80867 2.91336 173.309 175.268 187.166
172.314 186.49 187.136 175.175 172.343 179.776 181.914 170.28 169.048 180.036
167.946 171.214 182.577 -52.673 -39.022 -37.8628 -53.5024 -54.1797 -53.8441 -36.8797
-46.0176 -36.2211 -35.8539 -44.8845 -44.9302 -5.21597 -11.076 -26.4853 -25.9323 -27.5381
-38.7405 -27.6343 -27.3788 -38.4554 -16.1027 -13.7456 -15.6574 115.298 140.039 138.098
138.981 114.604 109.253 170.192 170.042 170.603 167.809 136.433 108.398 113.556
137.15 -54.0928 -48.5182 -49.7077 -49.1504 -53.1223 -44.4464 89.8086 93.0909 78.3232
-9.43181 -0.999792 -0.398164 -13.6472 57.3453 59.4114 72.5135 75.3083 -56.714 -56.4714
-56.4837 -56.6682 -57.0925 -57.4038 -57.5123 -57.4964 -55.5227 -55.3658 -54.8327 -55.1827
-118.437 -96.7275 -65.3744 -87.3037 -89.4182 -90.2999 -90.298 -75.9351 -80.8655 -94.4742
-71.3566 -86.0323 -133.786 -137.704 -129.918 -98.1503 -98.9341 -54.7061 -54.0792 -54.3849
-55.5949 -55.6535 -53.9473 -53.6767 8.79027 9.57183 13.5613 16.6881 13.4933 -47.9216
-46.9222 -41.1833 -41.8577 -43.9499 -43.7791 -43.7648 -43.6097 11.278 10.7741 15.0397
5.68 5.46515 6.67068 7.18849 7.33433 6.74907 5.7753 6.33256 9.59223 12.4488
11.0538 -0.762456 -2.7739 -5.0632 5.24819 4.35443 3.02145 4.92017 5.40459 -50.6452
-50.977 -53.3833 -53.395 -47.2371 -47.6468 13.5128 16.1667 17.5463 -44.5212 -46.8591
-47.3223 -44.3567 -43.5974 9.65282 9.40266 9.43899 7.91524 4.81125 -8.50523 -7.15733
3.50591 4.21167 4.41516 -47.127 -46.9673 146.319 148.357 140.75 136.746 113.076
118.031 125.46 120.936 184.516 185.787 182.102 178.332 -56.1327 -56.2002 -54.0369
-53.9152 169.643 183.404 185.097 172.999 174.429 186.585 171.062 182.228 169.685
179.417 -17.8052 -20.3704 -24.3599 -28.9275 -27.4766 -24.8125 -3.83738 0.855614 0.128534
-4.49399 -9.07652 -8.33307 -1.31562 -9.19198 -10.0479 -15.4181 -18.2634 -8.8259 -9.45489
-25.2434 -20.7295 -9.36411 -0.583991 -2.94365 7.19767 -1.43842 7.18739 7.91826 1.77813
2.14227 2.73437 2.81756 8.1748 6.60132 4.0384 5.7657 -18.3378 -15.0581 -25.3444
-20.1393 -56.7674 -57.1133 -57.4675 -57.5984 3.05362 3.16827 5.10737 5.43322 4.39832
5.03934 -15.3716 -41.3668 -58.4516 -66.8969 -54.5452 -32.9775 -57.6274 10.2327 9.71047
9.73465 -3.97411 -1.13664 10.6219 16.1151 7.58427 22.6368 19.5278 9.82933 0.387132
5.58931 7.06773 11.808 10.019 4.68971 -53.4518 -43.7217 -47.6565 -10.4873 -40.3047
-21.2597 -55.8284 -76.9265 108.455 92.5068 105.919 108.129 112.476 111.635 172.781
171.902 173.163 172.488 171.152 185.905 185.906 185.115 -57.339 -57.5368 174.616
-56.5558 -56.5679 -57.4621 -57.4754 -57.4583 -54.7036 -150.335 -137.763 -137.631 -133.739
-157.674 -137.52 -134.026 -134.34 -121.301 -116.892 -81.7392 -74.9065 -75.3588 -72.6887
-121.535 -122.939 -57.1871 -56.7575 -55.6904 -57.4626 11.1821 8.76027 11.3116 8.79331
11.8331 12.7139 13.2252 14.2456 14.9296 -53.324 -52.5838 -53.5348 -52.009 -49.9969
-49.7576 -49.8599 -51.7897 -7.03425 -2.02755 -2.28154 -5.70761 7.11331 6.99683 5.10357
4.87201 6.20546 7.51479 7.01433 5.67592 -0.494523 6.04575 5.18225 5.23872 9.0281
10.8211 9.5398 12.1197 11.6267 -52.4767 -53.2555 -49.545 -49.5182 -49.8214 -50.2381
-50.2545 -44.2173 -45.5156 -45.5307 -46.0916 -47.8844 -48.2088 -66.6261 -67.0492 -52.3218
-53.5498 -71.0302 -62.6821 -65.1404 -108.729 -112.266 -119.568 -72.2006 -89.3368 -97.1639
-73.2986 -90.2561 128.502 113.304 148.369 151.597 -54.6558 -53.9753 -54.9416 -55.2541
-53.6773 143.9 167.909 146.132 -42.4611 -41.5964 -41.6631 -42.4995 -41.8254 -41.8811
-41.7821 -41.472 -10.8021 -12.5218 -14.2891 -13.252 -16.3864 -18.82 -21.0241 -18.7407
-19.7139 75.433 86.4254 -51.5689 53.689 77.5153 65.6277 75.242 60.6834 13.3517
10.4534 45.1857 36.1048 5.6203 6.26998 2.05426 3.45024 3.46022 5.38697 4.71866
4.82627 5.07717 5.60416 -47.4532 -46.99 -47.7017 -48.4507 -2.96489 -2.95045 -3.38839
0.184693 4.06256 3.32768 6.14608 5.15263 -47.3831 -46.9623 -46.5824 137.976 136.051
171.058 184.685 189.028 189.318 186.791 185.264 -56.349 -56.029 -56.2058 -56.2254
-54.2213 -43.2198 -43.8816 -43.431 -42.7345 -42.5102 -43.6833 -56.6983 -56.7354 -57.1097
-56.5136 -56.3008 -56.2827 -56.5019 -56.0684 -54.4646 -103.928 -100.701 -135.834 -112.175
-135.615 -123.972 -125.425 -135.069 -56.851 -56.646 -55.1047 -53.9435 14.8402 13.4312
12.7059 13.8827 13.6185 14.3287 -30.9247 -30.4073 -25.1086 -24.5813 -36.2425 -36.4539
-41.1701 -40.9959 -47.4376 -47.4652 -39.8839 -49.2032 -48.9701 -7.58574 -2.69229 -12.1302
-2.01856 -0.770845 6.31581 6.213 6.6149 2.31263 8.07258 5.89638 6.7584 7.35496
7.97369 8.14717 8.16609 9.72856 9.3979 -0.662635 9.51207 10.969 12.0192 0.959567
0.181232 -0.128566 0.919194 -54.9327 -54.3346 -50.5198 -53.6769 -42.3237 -41.7656 -38.463
-42.0396 -43.2629 -47.0513 -49.1297 -47.113 -46.688 -47.0858 -41.6488 -48.2696 -44.9412
1.28171 -45.1592 -45.6698 140.829 131.599 129.159 129.26 129.642 114.087 106.65
188.599 188.066 187.051 -52.1007 -52.1519 2.86449 3.36388 4.18114 -23.2059 -24.1822
186.178 186.963 180.469 183.472 182.077 181.685 -32.9129 -29.5301 1.29298 -2.57378
-1.08834 1.2675 -18.251 -7.92504 -4.98667 -7.73198 -13.8033 -4.69657 80.5462 56.2421
60.9265 20.9203 21.3759 67.8089 110.522 9.66856 6.72492 -2.23388 -2.53568 6.62761
7.40532 7.65593 6.05966 6.38627 25.3075 17.541 2.11228 21.3079 -4.00052 1.73118
7.62974 7.46351 67.9269 110.105 -48.2297 -51.7527 19.5422 91.4427 108.778 102.046
94.8118 109.998 110.709 127.713 135.623 144.268 -56.2121 81.4955 73.4924 50.2212
17.6207 23.6334 21.749 -63.3223 -57.2338 -57.2326 -57.2352 -56.2673 -56.1357 -61.509
-56.5843 -61.3758 -62.0439 22.3457 -5.87746 5.33058 9.69637 10.2401 -3.54354 -3.63694
-4.64661 -49.4582 -45.5239 -1.68025 2.1451 2.26739 -54.6419 -54.0537 -53.5971 7.79135
7.55683 3.05869 -53.7406 44.13 49.4826 -66.7218 -58.8144 17.3243 14.7288 6.39022
4.9645 3.26381 5.9195 4.80835 -49.5762 -49.8101 -48.4433 -47.9178 -54.6398 -49.0584
-48.1196 -56.0447 -55.9674 -55.8222 -55.8568 -56.4574 -56.3896 -55.9923 -56.0872 2.23279
-48.1314 -52.8973 -51.9993 100.205 128.9 144.508 155.035 167.963 162.814 160.608
148.542 188.162 -53.1387 -53.9659 -50.7928 -3.49062 -6.21817 0.653287 -42.8392 -43.2032
-42.5358 -42.4306 -49.0118 -44.0829 -42.6528 -41.4483 -42.4125 -43.058 32.2784 24.0539
-98.9771 -105.97 -105.614 -106.101 -106.381 -75.9084 -98.568 -75.9125 14.285 17.4389
-12.1281 10.217 9.18547 -8.1895 -10.3226 2.47323 0.0945937 -1.15826 -2.44755 -4.38582
-5.4067 -3.61084 1.80544 2.11596 -3.09637 0.274804 2.22386 -0.551145 -2.26207 14.2639
18.2331 -47.7142 3.33335 9.21777 6.62446 12.314 4.26913 7.6548 10.2376 11.3486
2.58302 2.43311 5.75156 5.16124 -3.98718 -6.01492 -8.3779 -8.26942 3.44515 -0.93854
2.39479 8.85481 14.6968 15.9391 7.42423 4.12829 0.869784 0.344288 5.62533 9.1593
9.66908 10.372 9.6255 4.17037 -5.43294 4.04124 -4.5323 0.20061 -5.44827 0.266756
10.2802 7.67148 11.6222 6.39751 9.09606 10.8153 10.2543 9.9785 7.60343 8.23906
8.7583 9.01574 7.40132 7.13554 7.38199 6.13862 -5.81142 -9.73038 -8.11608 5.67289
5.69215 7.8451 5.07444 -10.2094 -12.2022 0.073889 6.2312 4.62341 -3.19903 4.14146
-138.049 -139.02 -139.261 11.4299 -54.4101 -52.175 -52.1098 3.91992 7.37972 4.79578
6.71296 11.4014 -54.4794 -54.3876 -52.9805 -52.0202 -55.6422 -54.7118 -54.7243 -62.7494
-104.089 -105.693 -102.204 -106.514 -41.7463 -42.386 -42.2399 -41.9644 -41.6201 -42.0836
-16.7218 -16.7591 -18.961 -47.1153 -46.9913 -47.0363 3.09592 -1.07929 3.55333 3.09103
-47.0894 -47.3117 -46.9928 141.616 150.992 -55.9169 -52.0989 14.323 15.1358 8.91996
5.77015 8.52421 14.2429 4.3075 3.45207 4.69525 3.77032 -49.2146 -56.7035 -56.4308
-56.2943 6.91556 14.4801 9.66666 3.21914 3.58268 9.23945 8.17612 8.50863 8.02634
9.11842 11.4019 8.9559 4.5517 8.27857 7.78579 -48.6634 -43.1886 -43.2264 93.3078
83.0362 86.3369 70.0919 75.7983 -4.25165 -2.46433 0.492038 -1.35323 7.40628 8.07703
7.52589 8.00846 7.94641 7.30411 6.56282 118.08 107.68 95.6882 -75.836 -59.0266
-57.7453 -55.8619 -56.231 -55.5782 -55.9096 163.406 139.689 161.836 161.971 10.0265
7.77387 12.4412 13.1564 7.13779 8.93126 7.31816 6.92239 6.07717 2.77623 -2.23348
4.81612 5.486 5.99953 3.79175 6.18852 13.6491 8.64479 -14.9023 14.4629 11.833
5.59685 8.71139 15.1168 8.52867 -13.6763 -14.8639 -12.2508 -4.79335 -6.8982 -15.2726
6.2079 3.48456 -15.8003 -17.4815 3.08014 2.54915 -3.1093 -6.00346 -48.0221 -42.9695
14.5138 1.50425 -0.0647246 -0.291745 5.8208 5.39228 6.33886 5.96055 5.90665 5.37031
-1.14519 5.18489 5.91921 -2.00759 4.99286 3.58746 6.9073 6.47045 5.90694 108.375
89.3716 123.629 125.556 4.16648 3.77189 1.62721 -47.8675 4.06659 5.65817 5.34673
-8.86725 -11.4773 -0.309933 5.29271 6.19089 4.73044 8.06508 4.17188 6.60761 2.29686
37.0224 -48.5816 -56.8456 -56.2302 -56.2951 -56.3257 -5.12144 -6.83513 -14.3443 -14.2281
-14.2534 -5.32929 5.66742 0.422539 3.39593 4.92176 0.201368 0.193435 -2.26311 -3.16743
-11.3579 -5.60597 -5.02529 -12.0282 -5.77773 -13.7321 4.27547 -13.0657 -14.1912 -4.50914
0.655372 6.00952 5.97374 5.54568 8.03829 -1.20563 6.46092 -2.65309 -1.09692 4.00734
-2.63332 6.62695 4.11738 -8.97279 8.14582 -0.631165 6.06587 1.37176 1.58413 4.89518
5.16922 4.29337 5.08565 0.242511 7.22273 7.99562 4.32872 5.43581 0.11714 2.28823
10.181 4.82556 -0.970905 -0.261052 1.82458 173.025 176.864 176.388 181.202 169.382
168.429 173.022 179.855 180.853 69.5033 73.6931 54.836 -56.8199 -36.3946 -33.1584
-31.056 -24.6291 -41.518 -43.8841 -43.2912 -52.1409 -44.5145 100.453 155.231 162.666
155.775 148.071 -56.8647 -56.6562 -56.7181 -56.7075 -56.2347 -56.704 -55.971 -56.1306
-56.076 7.28529 3.49944 171.221 -12.8013 185.958 190.235 189.378 -48.2291 -43.5147
182.881 186.053 186.172 -17.8106 -42.9851 86.4102 -56.412 -56.4315 -56.4818 -56.465
-47.0896 189.327 1.75602 189.569 185.539 189.133 8.25285 -59.8929 110.38 109.691
-56.8508 2.84147 -52.3646 -53.5298 -52.4007 -139.408 140.105 -56.4177 159.1 -52.4391
-106.44 -106.383 75.4318 6.80178 1.27074 168.508 165.11 -14.1558 139.689 191.107
189.99 185.528 189.373 190.827 189.791 172.732 191.17 186.752 189.944 191.206
0.595671 0.59128 0.616069 0.683612 0.892259 1.57349 2.12326 -4.07952 1.19758 0.0721214
-4.06602 -5.84136 0.408758 0.0726071 0.000283011 0.024536 0.027207 0.0129115 0.00586235 0.00928396
0.0139226 0.0131505 0.00841482 0.00186852 -45.5121 -43.3369 -117.701 -118.172 -41.4546 -41.5067
-41.7289 -41.3319 -41.3962 -41.5838 -41.8943 -41.2257 -97.1449 -76.715 -41.5757 -41.8452
-76.1453 -41.4753 -42.4459 -42.9304 -42.2358 -90.7584 -100.573 -113.92 -105.692 -105.615

U 3 2021 float
20.013 -0.0385812 -0.212055 20.0494 -0.0245658 -0.0717799 19.935 -0.00265307 -0.0955085 19.9457 -0.0469392
-0.602208 20.017 -0.0427078 0.0404949 20.0173 -0.0426333 0.0405439 20.1665 -0.0600674 0.0575982
20.2308 -0.0675671 0.0654287 20.2753 -0.070675 0.1484 20.2796 -0.0841246 0.251601 20.2032
-0.0853898 0.200413 19.9591 -0.0326375 0.019901 19.9967 -0.0374759 0.0181357 20.0051 -0.0355713
0.00692028 19.8703 -0.016915 0.0182332 19.8702 -0.0142532 0.0146285 20.0077 -0.0351776 0.00186195
19.8733 -0.01297 0.0100162 20.0063 -0.0346856 0.000617715 19.8727 -0.0118633 0.00900214 20.0048
-0.0342743 0.000203633 19.8717 -0.0109906 0.0086093 20.0037 -0.0338369 -3.902e-05 19.8709 -0.0101827
0.00821118 20.0025 -0.0334193 -0.000225091 19.8701 -0.00944093 0.00781253 20.0012 -0.0330023 -0.000358614
19.8692 -0.00875699 0.00748879 19.9998 -0.0325941 -0.000438453 19.8682 -0.00814791 0.00723977 19.9984
-0.0322074 -0.000449123 19.8673 -0.00760607 0.00712906 19.9968 -0.0317425 -0.00047857 19.8664 -0.00701513
0.00688518 19.8659 -0.00670153 0.00664025 19.9966 -0.0314976 -0.000485352 19.9996 -0.00028618 3.05419e-05
20 0 0 20 0 0 19.9996 -0.000284733 7.6018e-05 19.9983
-0.000666095 9.03826e-05 19.9984 -0.000669984 0.000268161 19.9943 -0.00128543 0.000353843 19.9942 -0.0012511
0.000962487 19.9793 -0.00226191 0.000292422 19.98 -0.00255644 0.00340655 19.9492 -0.00404757 -0.00919954
19.9385 -0.00503254 -0.00877982 19.9417 0.00369336 -0.0146697 19.9334 -0.00253041 -0.0295828 19.9118
0.00801702 -0.0608551 20.2337 -0.0587927 0.00314923 20.0539 -0.0228504 -0.0545992 20.236 -0.0577103
0.00699204 19.9372 -0.0641066 0.0265904 20.0286 -0.0867765 0.0828942 20.2305 -0.0675473 0.0649146
19.8703 -0.0212211 0.0240646 19.3375 0.0950063 0.0179681 19.3687 0.092224 0.0181422 19.3952
0.0873953 0.0173337 19.4136 0.0835241 0.0174065 19.4295 0.0801016 0.0174763 19.4443 0.0770246
0.0172572 19.4582 0.0742133 0.0169061 19.4712 0.0716185 0.0165517 19.4835 0.0691669 0.016214
19.4949 0.0668846 0.0159353 19.5073 0.0644497 0.0155285 19.5145 0.0630774 0.0152312 20
0 0 19.9996 -0.000283885 0.000132522 19.9985 -0.000662626 0.00047238 19.9946 -0.00125351
0.00165557 19.9803 -0.00264516 0.00575403 19.9209 -0.00733926 0.00906934 19.9214 -0.00673535 -0.000590279
19.8553 -0.0127383 -0.0963286 19.7977 -0.0163306 -0.0705821 19.9681 -0.0397865 -1.01613 20.4511
-0.0495716 -0.905677 20.2257 -0.0386322 -0.483597 19.9407 -0.0467019 -0.631618 20.2872 -0.119453
0.421925 20.2874 -0.120111 0.425037 20.0851 -0.184319 0.544035 19.9879 -0.171106 0.300212
19.8834 -0.133883 0.147784 19.725 -0.0680003 0.0452106 18.7776 0.102966 0.110573 19.3277