# vtk DataFile Version 2.0
sampleSurface
ASCII
DATASET POLYDATA
POINTS 2021 float
-0.500032 0 0.11501 -0.499951 3.38813e-21 0.0392727 -0.789037 8.47033e-21 0.120673 -0.500013 -1.35525e-20
0.193965 1.00003 0 0.0485099 1.00003 0 0.0478584 0.475202 0 0.0353615
0.250044 1.41878e-20 0.0305359 0.2506 -5.42101e-20 0.117067 0.251301 0 0.203885 0.364989
0 0.203772 1.75002 0 0.113255 1.75002 0 0.0564279 2.50001 6.89146e-18
0.059229 2.21354 0 0.250758 2.50001 0 0.252875 3.25001 -3.47927e-17 0.0598775
3.25001 -1.69407e-21 0.253888 4.00001 5.60566e-18 0.0599857 4 0 0.253986 4.75
-1.79088e-17 0.0599988 4.75 8.47033e-22 0.253998 5.5 -2.79246e-17 0.0599999 5.5 -4.23516e-22
0.253999 6.25 1.01187e-17 0.06 6.25 0 0.254 7 2.93732e-17 0.06
7 0 0.254 7.75 -2.65294e-17 0.06 7.75 0 0.254 8.5
1.8923e-17 0.06 8.5 0 0.254 9.25 -2.88552e-17 0.06 9.25 -5.29396e-23
0.254 10 -2.64698e-23 0.254 10 0 0.06 -4.24997 0 0.0599042
-5 0 0.0599861 -5 0 0.253986 -4.24997 0 0.253912 -3.49995
0 0.0593815 -3.49994 0 0.253441 -2.74993 0 0.0570188 -2.74991 0
0.251316 -1.99991 0 0.0492276 -1.99987 0 0.242776 -1.24992 -1.69407e-21 0.03
-1.24985 1.23328e-17 0.222327 -1.24989 3.38813e-21 0.125756 -0.874924 2.08116e-17 0.03 -0.874929
0 0.122356 -0.124951 -8.47033e-22 0.03 -0.499941 0 0.03 -0.124922 -8.47033e-22
0.0385291 1.00021 0 0.231242 0.625368 0 0.203537 0.25004 -2.11758e-22 0.03
1.75003 0 0.247334 1.92873 1.69407e-21 0.441438 2.50001 0 0.447397 3.25
-1.69407e-21 0.447898 4 0 0.447986 4.75 0 0.447997 5.5 -4.23516e-22
0.447999 6.25 4.23516e-22 0.447999 7 0 0.448 7.75 -1.05879e-22 0.448
8.5 0 0.448 9.25 0 0.448 10 -2.64698e-23 0.448 -5
-8.47033e-22 0.447985 -4.24997 0 0.447919 -3.49993 0 0.4475 -2.74988 0
0.445609 -1.9998 6.77626e-21 0.437758 -1.24969 1.61411e-17 0.417681 -1.24976 -6.77626e-21 0.31973
-0.875161 7.70461e-18 0.216228 -0.875403 0 0.312476 -0.499924 -8.74138e-19 0.250039 -0.312433
0 0.250037 -0.312436 0 0.200025 -0.499924 0 0.200026 0.250062 3.38813e-21
0.24921 0.250039 -1.69407e-21 0.250046 0.250032 0 0.300069 0.437526 3.05948e-18 0.300066
0.625026 0 0.30005 1.00072 -8.23994e-18 0.326497 1.00196 0 0.423 1.75013
0 0.439575 1.75013 1.77877e-20 0.448245 1.00135 0 0.537141 1.00002 0
0.61834 1.74999 2.71051e-20 0.633055 2.49999 -3.38813e-21 0.641448 3.25 0 0.641907
4 -1.69407e-21 0.641985 4.75 -8.47033e-22 0.641996 5.5 -4.23516e-22 0.641998 6.25
0 0.641999 7 0 0.641999 7.75 0 0.642 8.5 5.29396e-23
0.642 9.25 -5.29396e-23 0.642 10 0 0.642 -5 0 0.641985
-4.24997 -1.69407e-21 0.641926 -3.49993 0 0.641557 -2.74988 0 0.639897 -1.99989
6.77626e-21 0.63382 -1.25099 2.55465e-18 0.614606 -1.25 -2.71051e-20 0.515981 -0.878244 0
0.50789 -0.875961 2.71051e-20 0.459694 -0.875609 0 0.410432 -0.498432 0 0.400603
-0.498071 -1.70762e-18 0.413126 -0.450805 0 0.413349 -0.45095 0 0.400955 0.250009
1.89735e-19 0.412703 0.25 2.71051e-20 0.425212 0.296872 1.00289e-18 0.425187 0.343754 -2.71051e-20
0.425153 0.343763 0 0.400146 0.250006 0 0.400175 1.00162 1.41488e-17 0.520353
-2 4.23516e-22 0.820145 -2.09502 -2.11758e-22 0.830091 -2 0 0.829497 -1.25123
0 0.813251 -1.25126 0 0.713737 -1.25101 6.77626e-21 0.62198 1.00059 0
0.714169 1.00094 0 0.809205 1.75018 0 0.82775 2.5 0 0.835521
3.25 0 0.835917 4 -1.69407e-21 0.835986 4.75 -8.47033e-22 0.835996 5.5
0 0.835998 6.25 0 0.835999 7 0 0.835999 7.75 0
0.836 8.5 0 0.836 9.25 0 0.836 10 0 0.836
-5 -8.47033e-22 0.835986 -4.24997 0 0.835935 -3.49995 0 0.835616 -2.74991
0 0.83419 -0.970118 0 0.703382 -0.87455 0 0.699864 -0.874264 -2.71051e-20
0.649852 -0.874033 -2.71051e-20 0.599873 -0.49698 0 0.599585 -0.497345 -9.21572e-19 0.612046
-0.450014 0 0.611892 -0.44938 2.71051e-20 0.599454 -2.00002 0 0.84097 -1.84639
-3.38813e-21 1.02215 -1.25185 0 1.01276 -0.896512 -3.38813e-21 0.900668 -0.908183 6.77626e-21
0.801076 -0.904022 -1.86347e-20 1.00093 0.624925 0 0.799916 0.249931 0 0.799891
0.249978 0 0.899916 0.249997 0 0.999939 0.999987 0 0.999957 1.75061
-2.1684e-19 1.02409 2.50003 0 1.0296 3.25 -1.69407e-21 1.02993 4 0
1.02999 4.75 0 1.03 5.5 0 1.03 6.25 2.11758e-22 1.03
7 0 1.03 7.75 0 1.03 8.5 5.29396e-23 1.03 9.25
0 1.03 10 0 1.03 -5 0 1.02999 -4.24998 0
1.02994 -3.49996 -8.47033e-22 1.02968 -2.74996 0 1.02849 -2.00026 0 1.02458
-0.87482 0 0.799893 -0.87491 0 0.899919 -0.49993 0 0.799862 -0.499958
7.6233e-19 0.849889 -0.312476 0 0.849885 -0.312472 0 0.799853 -1.25001 8.04681e-21
1.19601 -0.499979 5.29396e-23 1.10737 -0.731886 2.11758e-22 1.19997 -0.499981 0 1.19997
-0.124987 0 0.999933 -0.477759 -5.29396e-23 0.999933 -0.487556 -1.45584e-22 1.09995 0.250008
0 1.19997 1 0 1.19997 1.7507 0 1.22203 2.50003 -1.35525e-20
1.22368 3.25 0 1.22394 4 0 1.22399 4.75 4.23516e-22 1.224
5.5 0 1.224 6.25 2.11758e-22 1.224 7 0 1.224 7.75
1.05879e-22 1.224 8.5 0 1.224 9.25 0 1.224 10 2.64698e-23
1.224 -5 4.23516e-22 1.22399 -4.24999 -4.23516e-22 1.22395 -3.49998 0 1.22374
-2.75001 0 1.22279 -2.00077 0 1.21965 -1.24997 4.23516e-22 1.19997 -0.499969
-5.29396e-23 0.999933 -0.874942 0 0.999936 -0.499979 -1.32349e-23 1.09995 -2.75001 0
1.36967 -3.18711 4.23516e-22 1.41751 -2.75001 4.23516e-22 1.4171 -2.00072 3.38813e-21 1.29692
-2.00065 0 1.41474 -1.25823 6.35275e-21 1.40014 -0.980416 0 1.39998 -0.499986
0 1.39998 0.250009 0 1.39998 1 0 1.39998 1.75054 0
1.41682 2.50002 -1.35525e-20 1.41776 3.25 0 1.41796 4 4.23516e-22 1.41799
4.75 0 1.418 5.5 0 1.418 6.25 0 1.418 7
0 1.418 7.75 0 1.418 8.5 0 1.418 9.25 0
1.418 10 0 1.418 -5 0 1.41799 -4.24999 0 1.41797
-3.49999 -4.23516e-22 1.41781 -1.24998 0 1.39998 -2.80392 1.32349e-23 1.61143 -2.75
-1.32349e-23 1.6114 -2.0003 0 1.60983 -1.25396 2.64698e-23 1.60004 -1.12789 2.64698e-23
1.59999 -0.49999 1.05879e-22 1.59999 0.250008 0 1.59999 1.00001 4.23516e-22 1.59999
1.75038 0 1.61122 2.50002 0 1.61184 3.25 -4.23516e-22 1.61197 4
-4.23516e-22 1.61199 4.75 0 1.612 5.5 0 1.612 6.25 0
1.612 7 0 1.612 7.75 5.29396e-23 1.612 8.5 2.64698e-23 1.612
9.25 -1.32349e-23 1.612 10 -1.32349e-23 1.612 -5 0 1.61199 -4.24999
0 1.61198 -3.49999 0 1.61187 -1.24999 0 1.59999 -2.75 -1.32349e-23
1.63714 -2.64195 -2.11758e-22 1.80559 -2.00012 -8.47033e-22 1.80492 -1.25741 0 1.80004
-1.19082 -7.94093e-23 1.8 -0.499992 1.05879e-22 1.79999 0.250006 2.11758e-22 1.79999 1
0 1.8 1.75023 0 1.80561 2.50001 3.38813e-21 1.80592 3.25 0
1.80599 4 0 1.806 4.75 2.11758e-22 1.806 5.5 0 1.806
6.25 0 1.806 7 0 1.806 7.75 0 1.806 8.5
2.64698e-23 1.806 9.25 0 1.806 10 0 1.806 -5 0
1.806 -4.25 -2.11758e-22 1.80599 -3.49999 0 1.80594 -2.75 -1.05879e-22 1.8057
-1.24999 0 1.8 -2 -4.76456e-22 1.98532 -1.20969 -1.65436e-23 2 -0.499993
0 2 0.250006 0 2 1 0 2 1.75 0
2 2.5 0 2 3.25 0 2 4 0 2
4.75 -1.05879e-22 2 5.5 0 2 6.25 0 2 7
5.29396e-23 2 7.75 0 2 8.5 0 2 9.25 0
2 10 -1.32349e-23 2 -5 2.21817e-18 2 -4.25 1.05879e-22 2
-3.49999 0 2 -2.74999 0 2 -1.99999 -5.29396e-23 2 -1.24999
3.30872e-24 2 0.0956945 -5.42101e-20 0.203879 0.0632748 0 0.203876 0.0625511 0
0.250042 -0.403589 6.77626e-21 0.40138 -0.405779 7.7927e-19 0.38799 -0.406379 -6.77626e-21 0.375196
-0.499567 -1.35525e-20 0.375265 0.250006 -6.50521e-19 0.375144 0.156247 0 0.375155 0.156237
9.41901e-19 0.400212 0.203129 0 0.400201 0.249796 0 0.59991 0.249852 -1.0842e-19
0.587433 0.202953 0 0.587417 0.202888 6.50521e-19 0.599901 0.625121 -6.77626e-21 0.499953
0.717439 6.77626e-21 0.504955 0.625095 6.77626e-21 0.475379 0.343596 1.0842e-19 0.599918 0.343639
0 0.574939 0.296781 0 0.574964 0.249926 0 0.574977 0.62499 -4.2826e-18
0.549927 0.624917 4.55365e-18 0.599925 0.203133 0 0.412725 -0.449046 0 0.587135
-0.496581 5.42101e-20 0.587161 0.625036 -9.32414e-18 0.40006 0.625067 1.13164e-18 0.450032 0.249704
0 0.624881 0.155871 0 0.599866 0.155839 1.95156e-18 0.624853 0.249886 1.35525e-20
0.749873 0.062411 0 0.749846 0.0624478 -4.26227e-18 0.799869 -0.312472 0 0.749804
-0.499901 -3.38813e-21 0.749824 -0.691227 0 0.30453 -0.499912 3.02221e-18 0.300065 -0.875784
-3.11708e-18 0.361353 -0.592465 -2.71051e-20 0.40036 -0.499854 0 0.350135 -0.687111 1.35525e-20
0.350117 -0.68656 -2.71051e-20 0.40021 0.437526 -1.35525e-20 0.400108 0.437522 6.77626e-21 0.350086
0.250015 -2.51399e-18 0.35011 0.625027 3.38813e-21 0.350064 -0.592287 0 0.425286 -0.498048
0 0.425444 -0.873902 5.42101e-18 0.54992 -0.496663 0 0.574746 -0.591532 0
0.574798 -0.591729 0 0.599734 -0.149108 0 0.406489 -0.149477 -5.29396e-23 0.403592
-0.149678 0 0.406489 -0.451876 -2.1684e-18 0.499977 -0.451579 0 0.487563 -0.498366
0 0.487552 -0.498515 -1.0842e-19 0.499993 0.437553 0 0.450075 0.437532 -6.07153e-18
0.425113 0.254621 -1.25361e-19 0.496697 0.26485 -5.42101e-20 0.498023 0.264831 0 0.496529
0.254636 -2.30393e-19 0.49668 0.570241 0 0.499932 0.437665 -2.71051e-20 0.474991 0.437859
-2.71051e-20 0.49988 0.437372 -1.0842e-19 0.599915 0.249722 3.25261e-19 0.649874 0.43732 -5.42101e-20
0.649899 0.624872 0 0.649914 0.624883 -3.95734e-18 0.699913 0.43734 6.83047e-18 0.699894
0.249817 0 0.699869 -0.592227 0 0.624743 -0.498071 -2.71051e-20 0.624658 -0.499769
6.77626e-21 0.69979 -0.687025 0 0.699824 -0.150854 -1.03677e-18 0.599678 -0.151059 -6.77626e-21
0.605522 -0.127339 6.77626e-21 0.605681 -0.127867 0 0.599582 -0.406139 -4.40457e-20 0.699754
-0.406113 0 0.674749 -0.499634 0 0.674774 -0.18433 -4.23516e-22 0.674527 -0.163626
-4.23516e-22 0.678958 -0.165125 0 0.674537 -0.171868 4.23516e-22 0.674524 -0.14924 3.34737e-19
0.400169 -0.125737 0 0.400165 -0.12551 0 0.393854 -0.149076 -2.11758e-22 0.393877
-0.499925 -2.61564e-18 0.325088 -0.406241 0 0.325087 -0.4062 0 0.300069 -0.124901
0 0.300062 -0.218633 -3.27294e-18 0.299673 -0.218596 1.35525e-20 0.324664 -0.124851 0
0.325085 -0.126061 7.86047e-19 0.406473 -0.0785222 1.30782e-18 0.400166 -0.126118 3.38813e-21 0.41275
-0.0785648 0 0.412729 0.240678 1.0842e-18 0.500153 0.252614 -2.1684e-19 0.498317 0.252386
1.0842e-19 0.496231 0.241035 0 0.496114 0.228892 -1.35525e-20 0.496204 0.228835 6.77626e-21
0.498715 0.229819 2.71051e-20 0.500074 0.25248 0 0.499935 0.240657 -1.6263e-19 0.500957
0.264863 0 0.500154 0.264689 0 0.500951 0.437443 0 0.549896 0.437406
[...]
POINT_DATA 2021
FIELD attributes 2
p 1 2021 float
2.00954 1.43808 2.36973 4.363 0.0592257 0.0571105 -4.20286 -6.04069 -7.68839 -6.1625 -4.31914
0.496989 0.464757 0.111789 0.327107 0.175115 0.00291078 0.0267835 0.0051336 0.0140231 0.00964733
0.01548 0.00519507 0.0100643 0.000669991 0.00471934 -0.000959026 0.00245435 -0.0007551 0.00219027 -0.000274248
0.00215567 0.000653046 0.00335092 0 0 0.614925 0.610467 0.610317 0.614641 0.63581
0.634916 0.705757 0.702628 0.927727 0.924444 1.64166 1.76328 1.77849 2.23617 2.47659
-4.05459 1.36805 -4.10736 0.651596 -0.111038 -6.03047 0.573013 0.444071 0.190696 0.0293419
0.00726894 0.00952242 0.00574244 0.00115068 -0.000630851 -0.000387369 -0.000538245 0.00256891 0 0.609887
0.613874 0.632507 0.693605 0.903367 1.95724 2.02996 3.12826 3.87303 7.32516 -3.29759
-1.0499 4.58308 -5.72764 -5.71979 -2.26691 0.334908 0.824764 1.03262 0.928994 0.523274
0.519082 0.846401 0.878251 0.429568 0.168303 0.0232066 0.00234465 0.00663669 0.00454569 0.000587474
-0.000931005 -0.000500511 -0.000378362 0.00277763 0 0.6092 0.612688 0.628878 0.680933 0.86297
1.85129 2.13702 5.13555 5.5895 4.82674 32.5812 36.4669 52.0396 45.9956 4.73848
4.89568 3.39779 3.43365 2.68442 4.06674 0.839813 0.808968 0.788495 0.806257 1.39787
1.78682 1.84652 0.990431 0.48184 0.350725 0.127947 0.01327 0.000167356 0.00687245 0.00626447
0.00275776 0.00127895 0.00151649 0.00206257 0.00350092 0 0.608327 0.611211 0.624452 0.666072
3.25356 3.75216 4.68426 4.76198 34.3671 32.7064 44.6346 50.7761 0.802428 0.782232
0.940951 1.70388 2.62862 1.14338 0.0779946 -4.87943 -5.29804 -2.74649 -0.227866 0.191631
0.0733707 -0.00588004 -0.0112278 -0.000972849 0.00111002 -0.000865073 -0.00144859 -0.000650361 0.000397982 0.00133786
0 0.607361 0.609593 0.619632 0.650109 0.741132 2.74822 1.73365 5.19322 3.29615
0.563583 -0.665892 0.698899 0.312539 0.314092 0.144187 -1.70692 0.675445 0.283055 -0.972897
-0.393056 0.0985014 0.0649792 -0.00315071 -0.0111144 -0.000988171 0.0017442 -8.1515e-06 -0.000606415 0.000136542
0.00110584 0.00156806 0 0.6064 0.607987 0.614792 0.633998 0.677677 0.693661 0.825442
1.1603 0.326033 0.62278 0.61404 0.619158 0.657429 0.626546 0.567661 0.385036 0.0607187
-0.563421 -0.376952 0.0466908 0.0594755 -0.0045192 -0.0153069 -0.00432734 -0.000518604 -0.00180408 -0.00216198
-0.00124578 -0.00014591 0.000407688 0 0.60554 0.606536 0.610376 0.567007 0.607391 0.607434
0.591482 0.496522 0.428015 0.0783227 -0.434478 -0.348132 -0.000523736 0.0482162 -0.00802738 -0.0189094
-0.00640436 -0.00153715 -0.00243772 -0.00260938 -0.00158021 -0.000398353 0.000236355 0 0.604864 0.605366
0.606839 0.496016 0.606456 0.595891 0.571172 0.458877 0.428552 0.0876164 -0.364251 -0.332207
-0.0270787 0.0430991 -0.0083987 -0.0199598 -0.00714969 -0.00196523 -0.00277613 -0.00287861 -0.00178988 -0.000570677
0.000112747 0 0.604429 0.604587 0.6045 0.600052 0.457755 0.564905 0.426401 0.0906913
-0.341896 -0.327058 -0.0353912 0.0415601 -0.00847945 -0.0203624 -0.00750364 -0.00219742 -0.00294183 -0.00297992
-0.00184285 -0.000600194 0.000104038 7.59233e-05 0.604276 0.604306 0.603659 0.597535 0.564395 0.445465
-10.2806 -11.138 -11.789 70.5137 60.108 43.916 29.6813 2.90341 1.67254 4.3669
5.03194 4.10068 4.51284 6.12879 5.34837 2.01972 1.73027 2.13574 2.93858 3.64552
3.33153 3.92465 2.23572 1.90073 6.0164 56.2649 39.4553 1.92896 2.25508 3.60382
4.68428 2.13014 -4.52893 -11.2042 -9.84062 -3.17457 8.47172 7.00397 11.9068 4.75
17.4647 20.826 9.13716 10.518 2.5744 1.49133 0.980988 1.64872 19.7319 36.9225
5.61389 39.6543 20.3331 18.8236 -58.767 -58.5507 -58.763 68.4752 68.3878 47.5712
44.8051 3.41229 3.11042 -5.00412 0.368111 0.218846 -5.05354 2.58174 3.98171 3.93376
2.84048 1.80877 1.74173 1.61286 0.941399 0.748927 -1.36831 17.0093 28.1142 13.3034
7.27928 -56.8275 -56.6255 -59.1404 -59.0155 13.8924 19.1349 18.4937 -46.2538 -42.7049
-44.3861 -45.1175 -58.2999 -57.6215 -57.6272 -57.7179 16.6174 15.8978 12.0115 -29.3569
-27.9633 -45.3642 -37.0609 -58.9289 -46.0021 -58.7491 -48.0732 10.9222 4.26808 10.4613
11.7878 9.0246 9.29748 9.58448 4.49071 11.0429 0.924047 0.758136 3.69984 3.45297
4.05416 4.30331 47.7648 68.358 -59.1361 -56.725 6.46793 11.0488 -51.4121 -52.6373
-58.668 4.49143 6.26192 6.46796 6.50888 -31.4115 -40.037 -49.3944 -29.7599 64.4212
60.8061 41.6658 41.414 -44.1046 -56.152 -11.5271 -8.57854 -0.460922 -24.5377 -42.4608
42.9934 44.3211 64.3228 66.4935 -51.9051 -50.003 -50.7367 0.301257 -9.65651 -12.7203
-11.6974 -21.6843 -24.8927 -58.1805 44.0489 21.8554 22.1497 11.704 12.0206 12.1947
13.1456 22.027 44.5144 10.8002 12.4632 11.9034 13.2433 -58.6192 -58.6122 -58.1227
-58.1103 -57.4377 -56.7955 -56.4143 45.829 66.8435 -58.2644 -58.5591 -58.9497 -58.1688
-29.7257 -34.9051 -32.601 -13.6508 -1.60135 -4.89382 -50.5056 -50.1497 -58.0031 -13.0766
0.105439 0.0300481 -13.2931 -58.2675 -56.81 -51.2259 -12.4245 -10.1665 -3.6972 1.52735
-7.30146 -5.56321 -18.4483 -38.0773 -41.193 -36.1556 -52.0855 -53.1459 -52.8319 -4.12823
-17.4004 -18.1231 -4.72651 -56.0914 -51.8456 -56.1036 -3.5666 -9.22654 -16.4695 -11.5851
67.5454 46.8796 -54.2989 -54.4723 -56.8943 -56.7554 -56.2799 -53.7824 -57.1912 -53.0196
-56.0384 -58.9585 -59.085 -59.1268 -32.0646 -76.9793 -95.9872 -100.969 -103.295 -102.858
-48.586 -50.1807 -54.2168 -48.2638 -49.8032 -98.0522 -99.4223 -71.2942 -34.2827 -58.4751
-59.3088 -58.9609 -56.2663 -57.1471 -57.153 -57.0747 -57.5201 7.05953 5.99183 8.88242
-56.0439 -55.744 -55.9632 -55.4446 -55.5662 -55.9002 -56.2914 -55.1718 -55.158 1.97893
1.76709 0.638846 1.153 4.11249 4.48546 1.26991 -55.9073 -56.3515 -56.9747 5.79881
6.6303 2.78111 0.886964 3.14439 -31.984 -38.0014 -37.2352 -31.5699 -54.6868 -55.2099
-58.1749 -57.8005 -55.0283 -55.8528 -38.5994 -42.9421 -42.8022 -36.6707 -46.1698 -50.2573
-53.2797 -53.4148 -52.2585 123.607 131.465 146.806 146.895 -58.1176 -56.1902 -56.4431
-57.8106 -57.5856 4.42784 2.16587 3.06869 4.65283 -9.64396 -3.88983 -5.7705 -8.75103
-11.6088 -38.6767 -36.6023 -25.372 -27.0104 -31.7801 -38.6876 -24.7512 -24.7994 31.114
41.2889 52.134 37.9401 23.0809 19.2854 34.291 26.1658 0.674336 0.832546 1.99025
34.1064 24.9237 17.138 22.255 2.83284 3.7831 4.41735 4.52295 3.62376 6.59044
6.69439 4.5075 -9.33319 -8.2127 -1.36864 -10.2168 14.6901 9.14966 10.8251 -54.9003
-57.2138 -57.3482 -55.1027 -82.4959 -81.2216 -84.447 -47.9116 -12.6541 -18.3012 -27.541
-56.0918 -52.8959 -55.3899 -56.4797 -74.0333 -73.7633 -58.3982 -59.6395 -49.4603 -47.8059
-50.1927 -50.2358 3.70389 3.76417 -0.672677 5.96914 5.61752 4.62808 5.29332 5.72509
6.11543 -54.3634 -53.8746 -68.6631 -67.8853 79.0384 94.1432 85.7449 112.136 106.451
88.866 90.1765 161.869 164.203 153.386 121.652 98.4276 104.365 97.325 117.667
-12.8759 -26.9284 -31.2184 -5.84204 -26.1194 -52.1332 -41.7781 -6.3161 93.7447 101.244
86.824 78.2911 96.7182 88.4147 107.628 148.481 158.231 167.42 165.157 106.642
102.92 159.648 -32.5808 -7.94187 -38.1971 -28.5417 -47.812 140.222 140.092 115.615
110.595 110.257 115.521 139.617 139.001 108.147 167.246 170.852 172.022 172.313
173.722 186.66 186.849 174.829 173.281 -32.8361 -39.9915 -32.8038 -56.4372 -50.753
-42.5751 -41.8199 -40.5585 -25.4699 2.74118 -2.58793 -0.627455 173.401 175.345 187.201
172.373 186.517 187.161 175.233 172.182 179.609 181.773 170.124 168.892 179.907
167.893 171.11 182.432 -52.4743 -37.5687 -36.3489 -55.7762 -55.7729 -55.8635 -36.1531
-45.9949 -36.2401 -36.6605 -45.6065 -45.5783 -3.38385 -9.1895 -24.9456 -24.9801 -32.7885
-43.4385 -32.8412 -32.5502 -42.882 -21.1227 -18.821 -20.5704 115.432 140.152 138.139
139.048 114.69 109.319 170.049 169.924 170.492 167.755 136.414 108.41 113.587
137.164 -57.3016 -54.3294 -52.9141 -52.7594 -55.775 -45.8711 90.2209 93.5121 78.7931
-14.9777 -6.25456 -6.72679 -20.8368 54.5391 56.3988 70.0185 73.668 -55.8881 -55.1423
-55.4412 -55.8859 -57.0377 -57.2873 -57.4115 -57.5145 -56.0199 -56.106 -55.6679 -55.771
-135.022 -109.314 -77.8294 -95.5382 -97.8961 -98.9934 -98.9857 -83.0789 -78.957 -92.5373
-70.0801 -84.6843 -132.378 -136.205 -128.268 -96.2133 -96.9957 -54.6763 -54.1288 -54.8131
-55.9313 -56.2223 -53.759 -53.68 6.76101 7.30529 13.7356 16.3466 13.8279 -50.8843
-50.1506 -45.6401 -45.8828 -46.2439 -46.0422 -46.0152 -45.7991 12.7723 12.5141 16.6772
8.18391 7.98158 9.56062 10.0444 10.0735 8.45682 7.26774 8.00943 12.3346 15.6493
13.6773 0.762202 -0.815706 -2.97682 6.99387 6.18413 5.06618 6.36752 7.09893 -52.3294
-53.1675 -56.2329 -55.5861 -48.41 -49.3525 13.624 15.5694 16.9708 -46.9039 -49.7861
-49.9093 -46.6147 -45.7809 11.2249 10.9705 11.0123 9.43081 6.75334 -6.97233 -5.74798
5.40054 6.2747 6.2341 -48.2837 -48.5765 146.535 148.56 140.985 137.018 113.447
118.381 125.784 121.273 184.62 185.896 182.198 178.44 -55.6013 -55.5316 -52.9961
-52.9089 169.651 183.37 185.069 173.008 174.464 186.584 171.043 182.155 169.64
179.291 -16.7459 -18.9383 -23.6533 -27.7932 -26.432 -22.5487 -8.65214 -3.3528 -3.80217
-8.96872 -13.9744 -13.594 -1.03422 -9.06407 -9.93341 -15.0152 -18.1445 -8.21609 -8.97407
-24.9461 -20.2228 -9.65116 -0.776154 -3.04894 5.98948 -3.47709 5.97197 6.73637 3.31822
3.8624 4.5813 4.15479 7.6593 6.04231 3.9466 5.79945 -18.899 -15.9751 -26.308
-21.4368 -56.4345 -58.1853 -58.7729 -58.6278 3.04547 3.10903 5.04854 5.52136 4.29908
4.89728 -14.5488 -40.2965 -57.235 -65.4535 -53.249 -31.8846 -58.947 10.714 10.1726
10.1959 -2.4028 0.252575 11.8507 17.0589 9.46276 23.6345 20.517 10.4083 1.72196
6.75938 8.235 12.9746 11.4319 6.76043 -53.3293 -44.0814 -49.9182 -13.05 -43.8703
-24.9343 -60.5717 -83.6389 108.822 92.9076 106.3 108.5 112.842 111.997 172.896
172.019 173.271 172.587 171.289 185.975 185.976 185.21 -57.9068 -58.1363 174.499
-56.1902 -56.1885 -57.1122 -57.2759 -56.9864 -55.6805 -148.974 -135.925 -135.832 -132.453
-156.592 -135.756 -132.351 -132.663 -119.509 -114.934 -80.1877 -73.1643 -73.4724 -70.8675
-119.392 -121.13 -56.7625 -55.7678 -54.6755 -57.129 9.45674 7.0921 10.6563 8.18581
10.9588 12.0006 12.3649 13.3307 14.1281 -55.2622 -54.3412 -56.3562 -55.1792 -53.2211
-52.9689 -53.065 -54.9953 -5.96962 -0.519758 -1.45364 -4.61825 9.16123 9.51131 6.77161
5.83041 7.5064 9.51123 8.77203 6.66856 1.25877 8.08129 6.95742 6.81199 8.64111
10.3938 9.20717 12.0509 11.3272 -54.7088 -55.1435 -55.3672 -55.4914 -55.6376 -55.4887
-55.0016 -52.878 -54.229 -54.2379 -54.2564 -51.1838 -52.5358 -73.7196 -72.9515 -57.6234
-59.914 -77.4682 -68.3546 -77.5946 -124.105 -128.761 -136.362 -79.4211 -97.4703 -107.42
-80.2634 -98.82 128.812 113.655 148.573 151.793 -54.5197 -53.7178 -54.8493 -54.8399
-53.0966 143.906 167.89 146.164 -49.0993 -48.2791 -48.7046 -49.4678 -49.2739 -49.2921
-49.219 -47.7742 -7.91854 -9.17865 -11.6505 -10.7906 -14.649 -16.7608 -18.8601 -16.6907
-17.5895 74.8321 85.5328 -58.5921 51.2481 76.552 65.0183 75.7221 61.1823 14.1859
11.3994 45.7386 36.7007 8.25084 9.10043 3.57968 5.24256 5.05405 7.69925 6.6483
7.01875 7.40083 8.19142 -52.8728 -52.4279 -52.1613 -52.7681 -1.03193 -0.504844 -1.06861
2.23763 5.65023 5.09891 7.03959 6.46881 -51.0542 -51.4466 -51.1521 138.241 136.329
171.202 184.792 189.097 189.384 186.876 185.351 -55.6729 -55.3667 -55.6946 -55.5049
-53.1282 -45.7264 -46.5452 -47.1729 -46.3892 -46.7191 -47.9961 -56.1048 -56.1308 -56.7151
-57.2447 -56.9213 -56.9049 -57.0697 -56.6674 -54.9658 -115.841 -111.436 -134.259 -110.671
-134.026 -122.278 -123.643 -133.364 -56.2114 -57.4214 -55.908 -54.447 13.6563 12.2791
11.2554 12.4328 12.6645 13.3104 -36.6627 -36.1543 -31.3464 -30.8062 -41.6509 -42.1836
-46.3563 -45.9675 -51.0627 -51.1116 -45.4389 -52.2369 -51.8703 -6.15753 -0.976543 -11.3731
0.76033 2.1897 7.96324 7.48697 7.80661 4.30795 10.6485 7.30206 8.71708 10.1755
10.8247 10.7113 10.8504 12.6272 12.301 2.46813 12.35 14.7527 15.9111 3.91765
3.43794 3.17738 3.84338 -58.7684 -57.9422 -52.5771 -56.4644 -44.2209 -43.7315 -39.6784
-44.0624 -45.4478 -49.578 -50.777 -49.2583 -49.4436 -49.2393 -46.9875 -52.1574 -47.3185
4.23391 -47.9191 -49.1824 141.062 131.881 129.464 129.532 129.911 114.443 107.04
188.673 188.146 187.151 -50.754 -51.0745 -1.28926 -0.72478 0.297823 -29.5011 -30.4183
186.068 186.904 180.382 183.34 181.887 181.517 -32.8453 -28.689 -3.03937 -7.64082
-5.77592 -3.07889 -24.6249 -13.4828 -10.0729 -13.2732 -19.706 -4.58019 80.8944 56.5269
60.8616 21.0694 21.4375 68.0237 110.717 10.1277 7.17261 -2.2128 -2.47942 6.8399
7.63059 7.91028 6.12386 6.5728 24.5592 16.3258 -0.379413 19.7877 -1.73068 3.44897
8.12067 8.03723 68.0301 110.221 -54.8866 -56.0453 18.146 91.8068 109.142 100.417
92.4662 108.081 109.195 126.603 134.341 143.216 -55.7238 81.8968 73.9235 50.7864
12.5867 18.6147 16.7902 -75.5081 -56.8446 -56.8379 -56.8412 -55.2719 -55.1979 -59.9138
-55.45 -59.8977 -60.4741 23.32 -6.49408 5.93189 10.5289 10.7599 -1.35934 -1.45877
-2.57288 -55.7672 -54.2376 -1.057 2.51518 2.80955 -57.536 -56.99 -56.0858 7.96913
7.64675 4.17242 -56.6514 41.7136 50.0521 -65.7983 -58.2267 18.0247 15.5568 8.93087
6.85294 5.01516 8.4484 6.89863 -54.2883 -54.2648 -53.0438 -52.9462 -56.1001 -52.344
-51.8422 -54.4778 -54.7707 -54.7584 -54.264 -55.3399 -54.9215 -54.7727 -54.5261 4.44447
-51.8331 -57.7885 -56.7995 100.561 129.208 144.756 155.224 168.125 162.966 160.777
148.775 188.257 -52.7676 -53.6365 -51.794 -7.36432 -10.3842 -3.20997 -49.7778 -49.8033
-49.7749 -50.0407 -53.2432 -47.3592 -48.87 -47.6783 -47.1814 -47.875 28.7694 20.2035
-112.293 -119.97 -119.84 -120.479 -120.823 -73.9644 -96.559 -73.9682 13.3518 17.0065
-10.8401 11.9272 11.3749 -5.39065 -6.93604 4.04492 2.47153 0.975603 0.648335 -0.601415
-2.19696 -0.968381 4.11576 4.52562 0.623988 2.84032 4.49129 2.40936 1.34479 13.2846
17.6053 -50.1381 5.41761 12.7291 8.46437 16.4178 8.55072 11.1879 14.1788 15.9432
4.79148 5.00326 6.47054 5.89849 -2.0266 -3.9428 -6.19375 -6.09412 4.90084 1.74121
4.39784 9.38352 15.2003 16.3758 8.17342 5.68822 3.09298 2.77414 7.14676 10.5557
11.1998 11.8385 10.9964 5.72663 -3.45296 5.60279 -2.70359 3.28455 -3.46165 2.50458
10.9472 8.30007 12.3173 6.97433 9.4246 11.3431 10.7493 10.4506 7.92886 8.57265
9.09514 9.34617 7.90671 7.3542 7.36356 6.03188 -5.39616 -8.87542 -7.10589 6.5057
5.89796 7.9616 6.27869 -9.09697 -10.8618 1.15033 7.07363 5.92664 -1.59449 5.69866
-136.215 -137.203 -137.561 10.2162 -55.5972 -54.5351 -54.5859 5.17788 9.81006 5.29707
8.37208 10.9992 -55.7564 -55.724 -55.0814 -54.7573 -60.9282 -60.4314 -60.9187 -68.9105
-116.062 -119.975 -113.74 -120.692 -49.045 -49.5685 -47.5779 -47.2844 -47.5472 -47.257
-14.3813 -14.3819 -16.7778 -52.6866 -52.4986 -52.2498 5.10247 1.50429 4.95941 4.93303
-52.0443 -52.4856 -52.619 141.823 151.165 -55.1569 -50.7434 13.3227 13.8934 11.4564
7.15494 11.4146 18.6523 4.24567 3.35866 4.68114 3.6999 -53.4073 -57.2727 -57.0905
-55.3037 7.72191 14.9564 11.026 4.08876 4.24548 10.033 8.77027 9.44896 8.57048
10.3383 12.3441 10.2007 5.78786 8.55849 8.19354 -54.2409 -50.2251 -48.6287 91.2592
80.2961 84.254 66.7915 72.7722 -4.76094 -2.88629 0.336134 -1.45099 7.6505 8.16307
7.69489 8.27483 8.04558 7.5426 7.08666 116.86 106.822 94.781 -73.8929 -57.3413
-56.0378 -54.8597 -54.6916 -54.3295 -54.3153 163.496 139.779 161.905 162.015 7.6617
4.55458 10.6236 11.3252 7.19805 8.50046 7.43959 6.88643 6.15844 2.77976 -2.3363
4.79727 5.43229 6.0116 4.37235 6.65958 14.3854 9.01582 -12.706 15.4635 14.2421
7.6219 10.7257 15.9046 9.11432 -12.5471 -13.4636 -11.5498 -2.77741 -4.79897 -13.0475
7.18723 5.3013 -14.5711 -16.1976 7.27279 4.88226 -0.944854 -3.80297 -55.1708 -46.0523
13.0627 1.96412 0.305355 -0.0826526 6.01367 5.57709 6.51085 6.0925 6.04884 5.63378
0.385246 6.264 6.88105 -0.358639 5.72187 4.74694 7.19212 6.69138 6.11182 106.232
86.7054 122.045 123.83 5.2055 4.93638 3.50262 -55.3823 5.13512 6.10358 5.88171
-9.51184 -12.4573 -0.200015 6.28884 6.76299 5.432 8.11274 5.24266 6.93721 3.93453
37.6272 -53.3009 -55.2082 -54.7017 -54.6698 -54.7329 -2.82316 -4.16643 -12.4678 -12.3377
-12.3597 -3.33592 9.44833 3.18966 6.01961 7.07491 2.65202 2.44119 0.183167 -0.776696
-10.7616 -5.12999 -4.02135 -11.136 -4.07627 -12.0025 5.63545 -11.265 -12.2955 -2.35179
1.26367 6.41677 6.43545 5.85632 8.82723 0.332158 6.68557 -3.04058 -1.03026 4.38171
-0.697562 7.23742 4.85132 -9.8133 9.00399 -0.574194 6.19903 1.11646 1.49515 4.87623
5.23167 4.31964 5.04608 3.20388 7.66636 8.89387 5.48569 6.08298 1.02556 3.46012
11.0535 5.58819 0.885381 -0.480049 3.67386 173.177 176.997 176.129 181.042 169.143
168.113 172.692 179.965 180.957 69.9404 74.1163 55.3488 -56.1527 -41.3883 -38.5051
-36.7557 -30.8432 -43.4089 -52.0089 -51.646 -55.3484 -46.4669 100.832 154.492 162.129
155.27 147.009 -56.5565 -56.1439 -56.5011 -56.2573 -55.8099 -56.2151 -54.9186 -55.2212
-55.063 4.00791 -0.249002 171.256 -18.276 186.031 190.278 189.425 -51.2635 -47.221
182.767 185.897 186.073 -16.2606 -51.1774 85.2904 -55.0519 -55.1823 -55.4376 -55.4053
-49.1495 189.4 -2.31969 189.517 185.538 189.111 7.31721 -64.2263 110.739 110.053
-55.9022 4.5594 -51.7573 -53.0063 -51.8636 -137.723 138.755 -54.8969 159.252 -51.9778
-120.904 -120.821 72.3085 6.97715 2.65128 168.1 164.713 -15.3883 139.864 191.122
190.017 185.42 189.47 190.806 189.801 172.812 191.178 186.798 189.971 191.212
0.614941 0.610473 0.635799 0.704889 0.918699 1.62224 2.20731 -3.98308 1.3551 0.0244898
-4.09797 -5.86659 0.409692 0.0903971 -0.00205191 0.00498844 0.0104437 0.00612668 0.00157914 -0.000121091
-6.94297e-06 0.000382304 0.0011729 0.000606732 -54.2281 -52.4672 -134.187 -134.746 -48.1032 -48.5448
-49.1925 -47.9511 -48.4318 -49.1201 -49.7653 -47.475 -95.1194 -74.7572 -48.9178 -47.3152
-74.1962 -48.8429 -51.2902 -51.654 -50.7601 -99.4722 -111.247 -129.684 -119.973 -119.796

U 3 2021 float
20.0063 -0.046107 -0.216181 20.044 -0.0309997 -0.0741443 19.929 -0.00661366 -0.0966348 19.9354 -0.0561267
-0.607609 20.0174 -0.0596327 0.0399442 20.0177 -0.0595285 0.0399759 20.1681 -0.0785463 0.0575871
20.233 -0.0867371 0.0656638 20.2786 -0.0917141 0.149808 20.2905 -0.116258 0.264493 20.2095
-0.117544 0.209203 19.9545 -0.0474419 0.0198397 19.9966 -0.0548987 0.0183016 20.0037 -0.0531576
0.00692414 19.8534 -0.0246393 0.0177205 19.8522 -0.0214203 0.0141684 20.0059 -0.0528645 0.00184936
19.8546 -0.0200179 0.00966553 20.0044 -0.0520417 0.000481623 19.8537 -0.0183773 0.00875159 20.0026
-0.0512115 -4.13683e-05 19.8524 -0.0168294 0.008436 20.0011 -0.05044 -0.000311627 19.8513 -0.0154963
0.00819333 19.9996 -0.0497413 -0.000480461 19.8502 -0.0143333 0.00797881 19.998 -0.0490651 -0.000593115
19.8491 -0.013269 0.00779887 19.9963 -0.0484 -0.000679617 19.848 -0.0123003 0.00761138 19.9946
-0.0477482 -0.000707331 19.847 -0.0114108 0.00753346 19.9927 -0.0470713 -0.000792938 19.8459 -0.0104762
0.00726831 19.8455 -0.00999231 0.00697477 19.9924 -0.0468484 -0.000831856 19.9996 -0.000345115 3.11969e-05
20 0 0 20 0 0 19.9996 -0.00034499 7.83489e-05 19.9983
-0.000798224 9.3741e-05 19.9984 -0.000807479 0.000278092 19.9942 -0.00156952 0.000368076 19.9941 -0.00153325
0.000999576 19.9787 -0.00283632 0.00033659 19.9795 -0.00315874 0.00357923 19.9464 -0.00557121 -0.00907389
19.9362 -0.00632118 -0.00798908 19.9389 0.00217025 -0.0143523 19.9276 -0.00557505 -0.0295471 19.906
0.0051155 -0.06109 20.2335 -0.0730185 0.00183821 20.0486 -0.0291506 -0.0567479 20.2357 -0.0721023
0.00511709 19.9274 -0.0892694 0.0308476 20.0244 -0.118715 0.0823141 20.2327 -0.0867055 0.0651425
19.8553 -0.0298464 0.0234667 19.3077 0.120559 0.0103502 19.3398 0.117931 0.0114304 19.368
0.112159 0.0114467 19.3891 0.107814 0.0121004 19.4075 0.103979 0.012579 19.4245 0.100357
0.0127347 19.4404 0.0969369 0.0127268 19.4554 0.0937212 0.0126464 19.4697 0.0906557 0.0125016
19.4828 0.0877516 0.012386 19.4975 0.0849138 0.0121043 19.5063 0.0834556 0.0118451 20
0 0 19.9996 -0.000345414 0.000136866 19.9985 -0.000805372 0.000489442 19.9945 -0.00153816
0.00171869 19.98 -0.00327861 0.00603536 19.9197 -0.00884828 0.0107253 19.9194 -0.00803325 0.000984466
19.8497 -0.016723 -0.0958889 19.7931 -0.020632 -0.0682335 19.9552 -0.0513222 -1.02666 20.435
-0.0679669 -0.937223 20.2164 -0.0538422 -0.510146 19.9303 -0.0561467 -0.63715 20.3089 -0.163758
0.454108 20.3092 -0.164639 0.457571 20.099 -0.249979 0.583991 19.9895 -0.239394 0.303165