# vtk DataFile Version 2.0
sampleSurface
ASCII
DATASET POLYDATA
POINTS 2021 float
-0.500032 0 0.11501 -0.499951 3.38813e-21 0.0392727 -0.789037 8.47033e-21 0.120673 -0.500013 -1.35525e-20
0.193965 1.00003 0 0.0485099 1.00003 0 0.0478584 0.475202 0 0.0353615
0.250044 1.41878e-20 0.0305359 0.2506 -5.42101e-20 0.117067 0.251301 0 0.203885 0.364989
0 0.203772 1.75002 0 0.113255 1.75002 0 0.0564279 2.50001 6.89146e-18
0.059229 2.21354 0 0.250758 2.50001 0 0.252875 3.25001 -3.47927e-17 0.0598775
3.25001 -1.69407e-21 0.253888 4.00001 5.60566e-18 0.0599857 4 0 0.253986 4.75
-1.79088e-17 0.0599988 4.75 8.47033e-22 0.253998 5.5 -2.79246e-17 0.0599999 5.5 -4.23516e-22
0.253999 6.25 1.01187e-17 0.06 6.25 0 0.254 7 2.93732e-17 0.06
7 0 0.254 7.75 -2.65294e-17 0.06 7.75 0 0.254 8.5
1.8923e-17 0.06 8.5 0 0.254 9.25 -2.88552e-17 0.06 9.25 -5.29396e-23
0.254 10 -2.64698e-23 0.254 10 0 0.06 -4.24997 0 0.0599042
-5 0 0.0599861 -5 0 0.253986 -4.24997 0 0.253912 -3.49995
0 0.0593815 -3.49994 0 0.253441 -2.74993 0 0.0570188 -2.74991 0
0.251316 -1.99991 0 0.0492276 -1.99987 0 0.242776 -1.24992 -1.69407e-21 0.03
-1.24985 1.23328e-17 0.222327 -1.24989 3.38813e-21 0.125756 -0.874924 2.08116e-17 0.03 -0.874929
0 0.122356 -0.124951 -8.47033e-22 0.03 -0.499941 0 0.03 -0.124922 -8.47033e-22
0.0385291 1.00021 0 0.231242 0.625368 0 0.203537 0.25004 -2.11758e-22 0.03
1.75003 0 0.247334 1.92873 1.69407e-21 0.441438 2.50001 0 0.447397 3.25
-1.69407e-21 0.447898 4 0 0.447986 4.75 0 0.447997 5.5 -4.23516e-22
0.447999 6.25 4.23516e-22 0.447999 7 0 0.448 7.75 -1.05879e-22 0.448
8.5 0 0.448 9.25 0 0.448 10 -2.64698e-23 0.448 -5
-8.47033e-22 0.447985 -4.24997 0 0.447919 -3.49993 0 0.4475 -2.74988 0
0.445609 -1.9998 6.77626e-21 0.437758 -1.24969 1.61411e-17 0.417681 -1.24976 -6.77626e-21 0.31973
-0.875161 7.70461e-18 0.216228 -0.875403 0 0.312476 -0.499924 -8.74138e-19 0.250039 -0.312433
0 0.250037 -0.312436 0 0.200025 -0.499924 0 0.200026 0.250062 3.38813e-21
0.24921 0.250039 -1.69407e-21 0.250046 0.250032 0 0.300069 0.437526 3.05948e-18 0.300066
0.625026 0 0.30005 1.00072 -8.23994e-18 0.326497 1.00196 0 0.423 1.75013
0 0.439575 1.75013 1.77877e-20 0.448245 1.00135 0 0.537141 1.00002 0
0.61834 1.74999 2.71051e-20 0.633055 2.49999 -3.38813e-21 0.641448 3.25 0 0.641907
4 -1.69407e-21 0.641985 4.75 -8.47033e-22 0.641996 5.5 -4.23516e-22 0.641998 6.25
0 0.641999 7 0 0.641999 7.75 0 0.642 8.5 5.29396e-23
0.642 9.25 -5.29396e-23 0.642 10 0 0.642 -5 0 0.641985
-4.24997 -1.69407e-21 0.641926 -3.49993 0 0.641557 -2.74988 0 0.639897 -1.99989
6.77626e-21 0.63382 -1.25099 2.55465e-18 0.614606 -1.25 -2.71051e-20 0.515981 -0.878244 0
0.50789 -0.875961 2.71051e-20 0.459694 -0.875609 0 0.410432 -0.498432 0 0.400603
-0.498071 -1.70762e-18 0.413126 -0.450805 0 0.413349 -0.45095 0 0.400955 0.250009
1.89735e-19 0.412703 0.25 2.71051e-20 0.425212 0.296872 1.00289e-18 0.425187 0.343754 -2.71051e-20
0.425153 0.343763 0 0.400146 0.250006 0 0.400175 1.00162 1.41488e-17 0.520353
-2 4.23516e-22 0.820145 -2.09502 -2.11758e-22 0.830091 -2 0 0.829497 -1.25123
0 0.813251 -1.25126 0 0.713737 -1.25101 6.77626e-21 0.62198 1.00059 0
0.714169 1.00094 0 0.809205 1.75018 0 0.82775 2.5 0 0.835521
3.25 0 0.835917 4 -1.69407e-21 0.835986 4.75 -8.47033e-22 0.835996 5.5
0 0.835998 6.25 0 0.835999 7 0 0.835999 7.75 0
0.836 8.5 0 0.836 9.25 0 0.836 10 0 0.836
-5 -8.47033e-22 0.835986 -4.24997 0 0.835935 -3.49995 0 0.835616 -2.74991
0 0.83419 -0.970118 0 0.703382 -0.87455 0 0.699864 -0.874264 -2.71051e-20
0.649852 -0.874033 -2.71051e-20 0.599873 -0.49698 0 0.599585 -0.497345 -9.21572e-19 0.612046
-0.450014 0 0.611892 -0.44938 2.71051e-20 0.599454 -2.00002 0 0.84097 -1.84639
-3.38813e-21 1.02215 -1.25185 0 1.01276 -0.896512 -3.38813e-21 0.900668 -0.908183 6.77626e-21
0.801076 -0.904022 -1.86347e-20 1.00093 0.624925 0 0.799916 0.249931 0 0.799891
0.249978 0 0.899916 0.249997 0 0.999939 0.999987 0 0.999957 1.75061
-2.1684e-19 1.02409 2.50003 0 1.0296 3.25 -1.69407e-21 1.02993 4 0
1.02999 4.75 0 1.03 5.5 0 1.03 6.25 2.11758e-22 1.03
7 0 1.03 7.75 0 1.03 8.5 5.29396e-23 1.03 9.25
0 1.03 10 0 1.03 -5 0 1.02999 -4.24998 0
1.02994 -3.49996 -8.47033e-22 1.02968 -2.74996 0 1.02849 -2.00026 0 1.02458
-0.87482 0 0.799893 -0.87491 0 0.899919 -0.49993 0 0.799862 -0.499958
7.6233e-19 0.849889 -0.312476 0 0.849885 -0.312472 0 0.799853 -1.25001 8.04681e-21
1.19601 -0.499979 5.29396e-23 1.10737 -0.731886 2.11758e-22 1.19997 -0.499981 0 1.19997
-0.124987 0 0.999933 -0.477759 -5.29396e-23 0.999933 -0.487556 -1.45584e-22 1.09995 0.250008
0 1.19997 1 0 1.19997 1.7507 0 1.22203 2.50003 -1.35525e-20
1.22368 3.25 0 1.22394 4 0 1.22399 4.75 4.23516e-22 1.224
5.5 0 1.224 6.25 2.11758e-22 1.224 7 0 1.224 7.75
1.05879e-22 1.224 8.5 0 1.224 9.25 0 1.224 10 2.64698e-23
1.224 -5 4.23516e-22 1.22399 -4.24999 -4.23516e-22 1.22395 -3.49998 0 1.22374
-2.75001 0 1.22279 -2.00077 0 1.21965 -1.24997 4.23516e-22 1.19997 -0.499969
-5.29396e-23 0.999933 -0.874942 0 0.999936 -0.499979 -1.32349e-23 1.09995 -2.75001 0
1.36967 -3.18711 4.23516e-22 1.41751 -2.75001 4.23516e-22 1.4171 -2.00072 3.38813e-21 1.29692
-2.00065 0 1.41474 -1.25823 6.35275e-21 1.40014 -0.980416 0 1.39998 -0.499986
0 1.39998 0.250009 0 1.39998 1 0 1.39998 1.75054 0
1.41682 2.50002 -1.35525e-20 1.41776 3.25 0 1.41796 4 4.23516e-22 1.41799
4.75 0 1.418 5.5 0 1.418 6.25 0 1.418 7
0 1.418 7.75 0 1.418 8.5 0 1.418 9.25 0
1.418 10 0 1.418 -5 0 1.41799 -4.24999 0 1.41797
-3.49999 -4.23516e-22 1.41781 -1.24998 0 1.39998 -2.80392 1.32349e-23 1.61143 -2.75
-1.32349e-23 1.6114 -2.0003 0 1.60983 -1.25396 2.64698e-23 1.60004 -1.12789 2.64698e-23
1.59999 -0.49999 1.05879e-22 1.59999 0.250008 0 1.59999 1.00001 4.23516e-22 1.59999
1.75038 0 1.61122 2.50002 0 1.61184 3.25 -4.23516e-22 1.61197 4
-4.23516e-22 1.61199 4.75 0 1.612 5.5 0 1.612 6.25 0
1.612 7 0 1.612 7.75 5.29396e-23 1.612 8.5 2.64698e-23 1.612
9.25 -1.32349e-23 1.612 10 -1.32349e-23 1.612 -5 0 1.61199 -4.24999
0 1.61198 -3.49999 0 1.61187 -1.24999 0 1.59999 -2.75 -1.32349e-23
1.63714 -2.64195 -2.11758e-22 1.80559 -2.00012 -8.47033e-22 1.80492 -1.25741 0 1.80004
-1.19082 -7.94093e-23 1.8 -0.499992 1.05879e-22 1.79999 0.250006 2.11758e-22 1.79999 1
0 1.8 1.75023 0 1.80561 2.50001 3.38813e-21 1.80592 3.25 0
1.80599 4 0 1.806 4.75 2.11758e-22 1.806 5.5 0 1.806
6.25 0 1.806 7 0 1.806 7.75 0 1.806 8.5
2.64698e-23 1.806 9.25 0 1.806 10 0 1.806 -5 0
1.806 -4.25 -2.11758e-22 1.80599 -3.49999 0 1.80594 -2.75 -1.05879e-22 1.8057
-1.24999 0 1.8 -2 -4.76456e-22 1.98532 -1.20969 -1.65436e-23 2 -0.499993
0 2 0.250006 0 2 1 0 2 1.75 0
2 2.5 0 2 3.25 0 2 4 0 2
4.75 -1.05879e-22 2 5.5 0 2 6.25 0 2 7
5.29396e-23 2 7.75 0 2 8.5 0 2 9.25 0
2 10 -1.32349e-23 2 -5 2.21817e-18 2 -4.25 1.05879e-22 2
-3.49999 0 2 -2.74999 0 2 -1.99999 -5.29396e-23 2 -1.24999
3.30872e-24 2 0.0956945 -5.42101e-20 0.203879 0.0632748 0 0.203876 0.0625511 0
0.250042 -0.403589 6.77626e-21 0.40138 -0.405779 7.7927e-19 0.38799 -0.406379 -6.77626e-21 0.375196
-0.499567 -1.35525e-20 0.375265 0.250006 -6.50521e-19 0.375144 0.156247 0 0.375155 0.156237
9.41901e-19 0.400212 0.203129 0 0.400201 0.249796 0 0.59991 0.249852 -1.0842e-19
0.587433 0.202953 0 0.587417 0.202888 6.50521e-19 0.599901 0.625121 -6.77626e-21 0.499953
0.717439 6.77626e-21 0.504955 0.625095 6.77626e-21 0.475379 0.343596 1.0842e-19 0.599918 0.343639
0 0.574939 0.296781 0 0.574964 0.249926 0 0.574977 0.62499 -4.2826e-18
0.549927 0.624917 4.55365e-18 0.599925 0.203133 0 0.412725 -0.449046 0 0.587135
-0.496581 5.42101e-20 0.587161 0.625036 -9.32414e-18 0.40006 0.625067 1.13164e-18 0.450032 0.249704
0 0.624881 0.155871 0 0.599866 0.155839 1.95156e-18 0.624853 0.249886 1.35525e-20
0.749873 0.062411 0 0.749846 0.0624478 -4.26227e-18 0.799869 -0.312472 0 0.749804
-0.499901 -3.38813e-21 0.749824 -0.691227 0 0.30453 -0.499912 3.02221e-18 0.300065 -0.875784
-3.11708e-18 0.361353 -0.592465 -2.71051e-20 0.40036 -0.499854 0 0.350135 -0.687111 1.35525e-20
0.350117 -0.68656 -2.71051e-20 0.40021 0.437526 -1.35525e-20 0.400108 0.437522 6.77626e-21 0.350086
0.250015 -2.51399e-18 0.35011 0.625027 3.38813e-21 0.350064 -0.592287 0 0.425286 -0.498048
0 0.425444 -0.873902 5.42101e-18 0.54992 -0.496663 0 0.574746 -0.591532 0
0.574798 -0.591729 0 0.599734 -0.149108 0 0.406489 -0.149477 -5.29396e-23 0.403592
-0.149678 0 0.406489 -0.451876 -2.1684e-18 0.499977 -0.451579 0 0.487563 -0.498366
0 0.487552 -0.498515 -1.0842e-19 0.499993 0.437553 0 0.450075 0.437532 -6.07153e-18
0.425113 0.254621 -1.25361e-19 0.496697 0.26485 -5.42101e-20 0.498023 0.264831 0 0.496529
0.254636 -2.30393e-19 0.49668 0.570241 0 0.499932 0.437665 -2.71051e-20 0.474991 0.437859
-2.71051e-20 0.49988 0.437372 -1.0842e-19 0.599915 0.249722 3.25261e-19 0.649874 0.43732 -5.42101e-20
0.649899 0.624872 0 0.649914 0.624883 -3.95734e-18 0.699913 0.43734 6.83047e-18 0.699894
0.249817 0 0.699869 -0.592227 0 0.624743 -0.498071 -2.71051e-20 0.624658 -0.499769
6.77626e-21 0.69979 -0.687025 0 0.699824 -0.150854 -1.03677e-18 0.599678 -0.151059 -6.77626e-21
0.605522 -0.127339 6.77626e-21 0.605681 -0.127867 0 0.599582 -0.406139 -4.40457e-20 0.699754
-0.406113 0 0.674749 -0.499634 0 0.674774 -0.18433 -4.23516e-22 0.674527 -0.163626
-4.23516e-22 0.678958 -0.165125 0 0.674537 -0.171868 4.23516e-22 0.674524 -0.14924 3.34737e-19
0.400169 -0.125737 0 0.400165 -0.12551 0 0.393854 -0.149076 -2.11758e-22 0.393877
-0.499925 -2.61564e-18 0.325088 -0.406241 0 0.325087 -0.4062 0 0.300069 -0.124901
0 0.300062 -0.218633 -3.27294e-18 0.299673 -0.218596 1.35525e-20 0.324664 -0.124851 0
0.325085 -0.126061 7.86047e-19 0.406473 -0.0785222 1.30782e-18 0.400166 -0.126118 3.38813e-21 0.41275
-0.0785648 0 0.412729 0.240678 1.0842e-18 0.500153 0.252614 -2.1684e-19 0.498317 0.252386
1.0842e-19 0.496231 0.241035 0 0.496114 0.228892 -1.35525e-20 0.496204 0.228835 6.77626e-21
0.498715 0.229819 2.71051e-20 0.500074 0.25248 0 0.499935 0.240657 -1.6263e-19 0.500957
0.264863 0 0.500154 0.264689 0 0.500951 0.437443 0 0.549896 0.437406
[...]
POINT_DATA 2021
FIELD attributes 2
p 1 2021 float
1.97506 1.40315 2.27931 4.40014 -0.0879708 -0.0900793 -4.7275 -6.72802 -8.49704 -7.31121 -5.25535
0.947724 0.935106 0.492471 0.680665 0.49722 0.0198543 0.0146637 -0.204897 -0.204206 -0.242408
-0.229407 -0.189431 -0.166132 -0.112995 -0.0842749 -0.0473688 -0.0180367 -0.00468155 0.0217493 0.0147178
0.0360512 0.0152972 0.0304829 0 0 0.530892 0.526365 0.526167 0.530545 0.55138
0.550421 0.620414 0.617496 0.845291 0.842233 1.56899 1.68143 1.68757 2.16109 2.36958
-4.40909 1.33308 -4.46241 0.502186 -0.558158 -6.71705 0.977458 0.740314 0.414102 -0.0359489
-0.232666 -0.237504 -0.158928 -0.0680597 0.00158912 0.0407779 0.0517287 0.0422248 0 0.525623
0.529619 0.547824 0.608573 0.820848 1.87917 1.94511 3.05974 3.82887 7.39841 -2.84591
-0.835785 4.63389 -7.07769 -7.07353 -2.83287 0.457745 0.812673 0.819981 0.80547 0.842288
0.836147 0.924754 1.11322 0.705064 0.371238 -0.0230743 -0.20749 -0.218288 -0.149846 -0.0679122
-0.00445837 0.031283 0.0410317 0.0321458 0 0.524791 0.528248 0.543967 0.595734 0.780526
1.78573 2.06517 5.08425 5.54403 4.77645 32.528 36.4336 51.9305 45.9567 4.74223
4.70511 3.54816 3.63641 3.0034 3.9472 0.885683 0.726273 0.70542 0.723549 1.34411
1.73487 1.78198 1.07655 0.410758 0.59259 0.366863 0.0371878 -0.145574 -0.182813 -0.142772
-0.0812782 -0.0287513 0.00388097 0.0161214 0.012622 0 0.52376 0.526576 0.539273 0.580466
3.22056 3.72553 4.66795 4.72132 34.4826 32.8923 45.0857 51.1054 0.719638 0.701626
0.873875 1.61571 2.56763 1.075 -0.236137 -5.61627 -5.53314 -2.92255 -0.410889 0.353341
0.295486 0.0470244 -0.124168 -0.176759 -0.154275 -0.103623 -0.0542711 -0.0191059 -0.00093293 0.00301687
0 0.522631 0.524761 0.534175 0.563965 0.657026 2.68652 1.64398 5.33598 3.3134
0.695842 -0.193782 0.615794 0.243285 0.252491 0.0923674 -1.72933 0.642494 0.212122 -1.10361
-0.546622 0.158048 0.228734 0.0482663 -0.104685 -0.159485 -0.143492 -0.0975087 -0.0499356 -0.0144632
0.00512252 0.0104154 0 0.521508 0.522961 0.529065 0.547284 0.591767 0.610209 0.791826
1.0918 0.255382 0.535685 0.527539 0.531939 0.570967 0.539243 0.48249 0.306296 -0.0066005
-0.669417 -0.514781 0.0522602 0.185233 0.0506411 -0.085846 -0.139859 -0.128495 -0.0879358 -0.0449719
-0.0129959 0.00422631 0.00796569 0 0.520496 0.521329 0.524389 0.48186 0.519879 0.519822
0.503188 0.410035 0.343409 0.00334047 -0.529937 -0.464974 -0.0109178 0.146668 0.0425028 -0.0810256
-0.133497 -0.124931 -0.0880782 -0.0482584 -0.018366 -0.00201088 0.00214925 0 0.519698 0.520013
0.520624 0.409539 0.51881 0.507893 0.482394 0.371266 0.341572 0.00786092 -0.454382 -0.433036
-0.0428725 0.122824 0.0360199 -0.0791255 -0.129864 -0.122075 -0.0865621 -0.0478071 -0.0184396 -0.00202157
0.00271139 0 0.519183 0.519129 0.518121 0.512186 0.370155 0.47604 0.338556 0.00953119
-0.43016 -0.422549 -0.0525429 0.115173 0.0338065 -0.0785 -0.128505 -0.120799 -0.0855927 -0.0471169
-0.0179363 -0.00159262 0.00310869 0.000972177 0.519002 0.518807 0.517218 0.509578 0.475524 0.357241
-11.5235 -12.4005 -13.2748 70.6792 60.5449 44.1049 29.8046 2.91739 1.38499 3.7311
4.65689 3.42076 3.28196 4.56005 4.23441 1.84727 1.61147 1.9608 3.19163 3.9857
3.59828 2.59702 2.15773 2.0693 5.82999 56.4557 39.5637 1.90557 2.07786 3.09947
3.62381 1.55612 -5.47993 -12.1309 -10.505 -2.36434 8.76985 6.97634 11.9004 4.71223
17.3488 20.9763 9.08041 10.4781 2.81871 1.82572 1.01898 1.86697 19.5993 36.8821
5.56736 39.6762 20.2281 18.7225 -58.1572 -58.1261 -58.1926 68.2236 68.168 47.404
44.621 3.54959 3.35766 1.64672 3.76523 3.52165 1.61983 2.40059 4.03331 3.73619
3.0129 1.52801 2.07358 2.01018 1.09377 0.845155 -1.81449 16.9009 28.2683 13.4624
7.20187 -55.5597 -54.5234 -53.3225 -53.1041 14.6423 19.9862 18.7341 -44.2634 -41.2286
-42.859 -43.4738 -58.0476 -55.8655 -56.6434 -57.5319 16.6952 16.2076 12.2561 -29.9322
-27.3638 -43.1509 -37.5042 -56.7251 -42.6129 -55.6751 -42.8561 10.018 6.56869 9.84669
10.8132 8.17872 8.1584 8.23921 6.63105 10.0758 4.18943 4.13137 3.62442 3.58343
3.8166 3.98648 47.5976 68.127 -53.489 -56.2971 7.83879 10.0221 -46.5644 -47.64
-53.7853 5.35466 7.56938 5.72106 5.96964 -30.7192 -39.204 -46.446 -28.0968 64.2488
60.6596 41.6615 41.3517 -42.4018 -55.2465 -12.9108 -9.18841 -0.698619 -24.9425 -43.1253
42.9375 44.3353 64.3183 66.4505 -47.4231 -45.6888 -46.1446 -0.0941598 -9.99161 -13.6269
-12.6165 -22.5216 -25.4395 -53.1473 43.8964 21.7006 21.999 11.6536 11.9953 12.1343
13.0817 21.8863 44.3622 10.7387 12.4 11.8459 13.1812 -60.0163 -59.8458 -56.2879
-56.2228 -60.0006 -60.8083 -59.8071 45.7524 66.6747 -59.8186 -58.5763 -60.0003 -59.7653
-26.8233 -29.9719 -26.7016 -10.6542 -1.17625 -4.86718 -46.2744 -44.7807 -56.0685 -9.11223
1.33803 0.786873 -9.57678 -59.215 -54.9945 -46.8373 -8.51416 -6.64285 -1.65102 2.35781
-6.94161 -5.22783 -15.768 -33.3566 -36.8278 -32.3653 -48.5699 -49.5043 -48.5853 -4.32078
-15.4968 -15.4505 -4.9247 -52.6274 -48.9052 -52.8424 -4.33973 -9.3164 -15.4533 -7.73812
67.4581 46.789 -50.0108 -50.1976 -52.9952 -52.6909 -51.3869 -48.7187 -52.8848 -48.5894
-51.7552 -56.9341 -57.7007 -57.6671 -29.3953 -73.1612 -89.2093 -92.9279 -92.7879 -92.3084
-41.1816 -49.8478 -53.1482 -48.7912 -45.7903 -91.2604 -91.5768 -66.9169 -31.4192 -54.8357
-55.8743 -57.8007 -57.06 -58.4512 -59.7625 -60.168 -60.1614 6.85151 5.74235 7.95459
-53.9625 -55.319 -55.4105 -53.2181 -53.4169 -49.7702 -49.5369 -51.9046 -51.7765 -0.00867102
0.93671 -0.231676 -1.19059 2.71441 2.86167 0.0760955 -50.0482 -52.0932 -52.0477 5.11878
5.53927 2.41362 1.12045 3.17501 -24.9811 -31.0775 -30.1664 -24.1584 -49.5281 -51.5461
-53.8338 -53.4824 -50.5751 -49.7993 -35.5673 -39.502 -39.6418 -34.1864 -45.6903 -49.6646
-50.9359 -50.7451 -50.252 124.51 132.744 148.041 148.075 -56.1951 -57.1983 -58.1945
-58.9317 -59.9158 4.24694 2.39492 2.86975 4.85933 -10.0122 -4.6268 -4.51199 -7.43367
-10.0884 -34.0913 -34.1229 -23.737 -23.5359 -27.867 -33.8886 -17.3545 -18.2208 32.07
42.704 53.5155 38.437 23.2922 22.412 36.2744 27.7391 0.778011 0.940004 1.9892
34.094 25.0623 18.2428 23.6415 0.812601 -0.198076 0.167093 1.09256 2.70478 5.13406
5.29469 2.52787 -8.21379 -6.67331 -0.919828 -9.18594 14.5556 9.07923 10.7575 -53.6302
-52.7238 -52.7891 -53.7467 -74.0906 -72.9053 -75.8995 -46.2822 -10.93 -16.7039 -25.4108
-55.0626 -52.1297 -54.9859 -55.8859 -70.9458 -72.0119 -56.3181 -56.5005 -43.5101 -43.0735
-45.4288 -45.3363 4.5527 5.59561 -1.48072 5.15119 4.92595 4.97874 5.10615 5.27129
5.24623 -51.3392 -53.0372 -61.2645 -60.5235 78.9755 94.0003 85.8764 111.724 106.236
88.7984 90.0105 160.997 163.79 153.228 120.863 97.9394 103.767 96.9585 116.911
-12.9341 -26.3693 -29.4759 -6.06401 -25.8862 -51.5799 -40.9478 -6.66247 94.7969 101.816
87.5119 78.8632 96.5995 88.8283 107.77 148.698 156.657 165.207 163.558 106.553
102.703 158.842 -30.5511 -7.86483 -34.4156 -28.4318 -44.8695 139.69 139.536 115.093
110.026 109.814 115.094 138.991 138.418 107.638 166.147 169.517 170.957 171.406
173.326 186.155 186.06 174.477 172.905 -26.3338 -34.6387 -26.5525 -54.4543 -46.2507
-36.1533 -35.1492 -33.8053 -20.1485 3.11796 -1.05202 0.290623 173.075 175.162 187.121
172.036 185.266 186.493 175.078 170.488 177.813 181.366 168.178 167.034 179.266
167.356 170.043 183.948 -48.0346 -32.8864 -32.9541 -51.7235 -52.2702 -51.5327 -33.6281
-43.7096 -33.9248 -34.18 -43.5437 -43.5799 -4.3961 -9.67651 -23.0462 -23.4329 -26.6679
-37.1733 -26.352 -25.8339 -36.5821 -15.3591 -13.0112 -14.7634 114.799 139.661 137.716
138.637 114.34 109.125 168.263 168.446 169.217 167.219 136.037 108.309 113.46
136.7 -52.8966 -47.2607 -54.9352 -48.166 -51.419 -43.2342 90.7912 94.403 80.3309
-5.34704 2.76711 1.18574 -11.8372 58.0267 60.3548 73.8808 76.2621 -56.6644 -55.7001
-56.636 -56.7571 -59.9427 -60.2184 -60.3828 -59.6809 -62.4037 -61.7035 -61.7089 -61.6505
-118.232 -93.4972 -64.6117 -88.5718 -90.8362 -90.5286 -90.5056 -74.4704 -74.858 -86.147
-66.8315 -82.2579 -128.09 -129.887 -121.642 -88.5686 -89.5035 -57.3864 -57.8172 -60.1833
-59.5968 -61.2629 -56.7696 -57.6787 6.01346 6.70751 11.1313 12.8741 9.85736 -46.067
-44.9636 -38.9413 -39.7504 -28.6111 -27.2323 -27.0453 -32.6928 15.7765 16.6182 20.5675
6.09827 5.87869 6.57417 6.68734 6.84561 6.77943 4.8957 5.96058 10.2097 14.3547
13.8061 -0.229937 -0.142698 -2.06024 3.95435 4.47507 4.00258 4.39524 3.96826 -49.3255
-49.4814 -51.3027 -51.1185 -46.8274 -46.8178 11.5722 13.2261 13.7015 -33.1179 -44.5863
-47.754 -29.4999 -33.1523 10.3839 9.85289 9.90612 8.22206 4.5398 -10.9076 -7.86577
8.69618 3.85809 4.49547 -46.747 -46.2801 147.665 149.851 141.963 137.747 112.763
118.877 126.794 121.374 183.79 185.296 180.744 177.077 -56.6508 -57.4577 -53.36
-52.613 168.994 182.199 183.994 172.611 174.2 185.145 170.44 180.796 168.941
177.597 -15.8991 -16.0016 -19.8144 -20.6768 -20.2756 -16.4859 -4.75481 -1.04589 -2.1167
-5.568 -8.95342 -8.17484 -0.823269 -9.36096 -10.2241 -14.4367 -18.4067 -7.23938 -8.28029
-25.1475 -19.7096 -9.47702 -0.666212 -3.0343 5.13327 -3.55193 5.11551 6.2489 1.6526
4.21485 5.52328 4.70546 6.82557 5.56567 3.89618 5.38659 -18.4027 -14.7639 -25.3041
-20.0331 -57.9607 -57.9818 -58.1858 -58.4276 3.20963 3.18603 5.00099 5.37307 4.3985
4.85205 -13.5162 -37.9443 -53.6451 -61.8296 -50.3087 -30.662 -58.0681 13.0852 12.6147
12.6878 -4.13202 -1.04104 13.5853 18.3898 7.86127 23.0069 17.6781 10.0016 0.57542
6.90413 8.42954 12.3078 9.87017 4.96451 -48.3876 -43.3812 -48.2992 -11.3095 -41.161
-23.1147 -57.2945 -78.6859 108.436 94.8159 106.419 108.312 112.955 111.187 172.321
171.474 172.811 172.2 170.59 185.034 185.035 184.062 -59.843 -59.7512 174.031
-57.1983 -57.2441 -59.3642 -59.4632 -59.6205 -61.4606 -143.494 -130.828 -130.639 -127.727
-150.884 -130.474 -124.621 -124.769 -111.486 -107.394 -75.85 -68.5797 -70.2073 -66.7787
-109.739 -111.411 -58.6057 -58.0017 -55.0647 -59.3289 7.90169 6.42301 10.0563 8.02567
9.81538 10.7454 10.7216 11.1005 11.8576 -51.9163 -51.3089 -49.5983 -51.918 -57.4594
-55.3938 -56.6463 -52.833 -8.01471 -2.78066 -4.22579 -6.34526 4.21261 4.8055 1.79337
1.28046 3.79373 5.65351 3.97384 3.64268 0.00833198 5.94757 5.08028 4.78934 8.5003
10.36 9.73737 11.8116 11.134 -51.2458 -52.7304 -74.2289 -75.4328 -73.3488 -67.8806
-65.4254 -28.8823 -35.9078 -35.9591 -36.5028 -52.4158 -51.5441 -65.6628 -66.8849 -53.1673
-54.0899 -68.6092 -61.2088 -64.3963 -108.767 -113.015 -119.522 -70.9148 -88.8044 -97.3175
-71.5816 -90.016 129.486 113.972 149.864 153.193 -55.8376 -56.4415 -56.2743 -55.2572
-52.647 143.359 167.053 145.676 -37.6982 -37.699 -38.8385 -40.6063 -47.6755 -47.7619
-47.6374 -32.3671 -4.4881 -4.55974 -7.2553 -7.46172 -12.6076 -12.7336 -13.7441 -12.7279
-12.8159 75.6132 86.8817 -45.9259 53.9068 78.1427 66.0818 77.395 62.5028 16.1268
12.6991 47.2416 38.0669 5.74084 6.21673 1.72061 2.36254 2.82597 5.73901 4.60981
4.25813 4.61345 6.32356 -56.0688 -55.7068 -53.2079 -53.8793 0.462021 1.95138 0.450538
4.71826 6.96702 6.90319 6.12137 7.07384 -52.8511 -53.1902 -52.2036 138.712 137.015
170.379 183.292 189.423 190.231 187.897 184.046 -59.9181 -59.3436 -59.2157 -57.7606
-54.4891 -46.2324 -46.5534 -46.982 -46.9289 -38.5697 -41.3111 -58.1559 -58.1319 -59.0686
-60.5949 -61.1712 -61.179 -60.2033 -61.2334 -60.3877 -103.107 -100.275 -129.233 -107.306
-126.538 -113.09 -115.682 -125.632 -58.0572 -60.0677 -56.418 -59.8978 9.40031 9.07563
8.75219 9.09556 9.87775 10.0085 -29.2866 -29.0327 -23.5561 -23.0159 -33.8885 -33.7092
-37.9035 -38.1209 -44.9449 -44.9381 -36.3734 -54.5205 -54.521 -9.50936 -3.7507 -15.1243
-1.37506 -0.135243 3.73901 3.08099 3.65816 1.31005 6.60773 2.38572 3.79272 6.46955
6.61765 7.78085 7.43189 9.36982 8.31211 0.733314 9.30656 11.3821 12.7717 4.40599
4.60937 4.70635 4.48229 -52.3618 -51.9743 -47.6001 -51.1463 -39.1552 -39.3483 -33.5783
-39.6566 -40.2519 -44.8291 -46.5759 -45.4851 -44.4729 -45.4543 -37.7911 -45.0444 -35.2889
3.47042 -43.5081 -43.9762 142.039 132.505 130.094 129.667 130.072 113.32 105.083
186.898 186.658 185.241 -49.588 -49.7411 1.03667 1.50901 1.76867 -21.4864 -22.5902
183.972 185.353 178.625 180.92 179.319 180.974 -27.8198 -23.8914 0.0461293 -1.24251
-0.204956 0.410108 -15.8673 -6.75922 -2.59222 -7.17362 -11.9296 -4.94019 80.7183 56.4079
60.9361 20.9149 21.3148 67.8456 110.309 12.6133 7.19663 -1.40125 -1.38602 5.82139
6.22071 6.24334 5.41499 5.58099 25.3811 17.8179 1.27508 21.3066 -0.334638 4.90129
5.7999 5.8048 67.8691 109.732 -62.3354 -54.6846 19.6694 95.5698 108.561 104.152
94.0734 111.789 113.637 128.806 137.456 145.562 -58.715 85.1933 76.8408 50.853
18.7495 23.2916 21.2318 -62.7264 -58.6541 -58.6568 -58.6643 -52.8174 -52.8317 -56.6984
-52.7825 -57.0675 -57.1026 22.6277 -6.24162 4.16328 8.3768 8.6854 -3.92151 -4.00701
-5.10641 -78.1043 -35.9529 -4.08454 -1.94475 -0.700541 -52.4094 -50.8484 -51.4338 8.20932
7.61371 3.75594 -49.9747 43.7876 50.0283 -64.6085 -56.77 16.4092 15.202 4.72583
2.28431 2.07586 4.82698 2.97025 -53.5201 -54.4516 -52.5035 -52.023 -54.0947 -53.5145
-53.4643 -53.6051 -53.8997 -53.6658 -53.4407 -55.8736 -54.5093 -53.9399 -53.6421 6.69311
-53.4716 -55.3298 -56.1027 100.381 129.838 145.164 156.739 168.418 164.655 162.062
148.922 189.311 -53.52 -56.0281 -49.0851 -4.54435 -6.75936 -1.6633 -41.3237 -37.6959
-48.5843 -48.2108 -48.6293 -50.8955 -33.2936 -31.3537 -34.7211 -36.9342 36.2231 28.1684
-99.6171 -106.166 -106.394 -106.676 -106.803 -72.883 -89.3894 -72.8995 10.9777 13.1066
-14.6819 10.8457 9.75927 -2.28725 -2.46448 2.46427 1.65462 0.972019 1.31991 1.30297
0.541501 0.675087 3.20688 4.17723 2.71247 3.66447 3.9953 3.26 3.19136 10.6741
13.7816 -51.6547 2.98242 8.81961 3.57223 14.2673 9.11431 11.7738 13.0289 14.695
4.05212 3.14768 4.88036 4.29928 -4.57775 -6.30652 -8.32799 -8.2897 1.18427 1.19529
2.57694 8.09739 13.1526 14.7258 7.66398 3.23999 2.61569 2.3662 4.33742 8.19624
9.52231 10.0435 8.94669 3.27272 -0.835928 3.19959 -1.12743 3.4234 -0.799386 2.43416
10.0331 7.9677 11.0086 5.56221 8.42163 9.65838 8.68494 8.46341 5.8574 7.79375
8.40588 8.59028 6.18131 5.67358 5.96456 4.79271 -4.20003 -6.35981 -5.65855 3.08124
3.45329 5.88527 2.48728 -7.9148 -8.45463 -0.688183 4.03003 3.00797 -1.54607 3.24251
-130.546 -129.609 -128.386 8.67731 -55.4062 -50.6733 -50.5584 2.61785 8.46992 2.13285
4.10393 11.4504 -55.3787 -55.1634 -52.4436 -50.3343 -56.686 -55.9028 -54.9184 -61.0892
-103.248 -106.492 -101.541 -106.467 -40.8264 -43.1558 -32.2069 -31.0494 -31.2516 -32.0279
-10.1967 -10.2101 -12.136 -57.0076 -56.3115 -55.0129 7.92843 4.41639 6.64226 8.44503
-54.2116 -55.5467 -57.338 142.78 152.647 -58.8503 -49.5827 10.4955 9.2279 9.69911
2.12552 7.35707 16.9499 4.15028 3.6216 4.51166 3.97927 -51.1456 -57.1144 -56.6982
-55.2687 7.16304 12.5626 8.95873 5.98316 5.22251 9.8572 7.68233 8.06177 8.03426
8.59163 10.5466 8.91494 6.09096 6.18138 5.80234 -47.4864 -46.0758 -36.3522 95.1175
81.7909 87.6972 68.8506 75.9579 -5.16022 -2.86626 -0.619716 -3.50238 6.62641 6.85956
6.81401 6.96671 7.01367 6.67561 5.78417 119.971 108.3 96.2486 -72.8317 -57.9425
-55.2386 -52.9298 -51.5553 -52.4797 -52.4684 163.126 139.344 161.53 161.545 6.65262
4.81986 8.8639 8.70238 6.74648 7.89338 6.90056 6.36685 5.68022 4.80711 -1.14241
4.60641 5.20748 5.49308 4.95913 6.3229 12.429 8.1767 -13.199 15.1031 14.6883
6.77401 11.425 13.3905 8.26156 -9.35684 -10.5055 -8.7527 -5.25757 -7.95576 -13.551
7.10705 3.59352 -11.3578 -12.1222 9.8381 5.13805 0.943844 -0.208127 -62.7786 -52.6656
9.10627 2.65533 1.02294 0.491202 4.59215 4.86183 5.16399 4.17156 4.12322 4.12851
2.59972 6.34033 6.83719 1.80262 6.27453 6.52584 6.03769 6.17757 6.84495 108.428
85.73 126.314 127.891 3.37217 2.89933 0.254689 -63.1129 3.28292 5.0179 4.77057
-9.28684 -11.7952 -1.85107 4.35951 5.71855 5.0569 8.70026 3.82007 7.65105 1.57293
36.6774 -49.3745 -54.6942 -53.5147 -53.8745 -52.7306 -0.103943 -0.216656 -7.233 -7.08997
-7.08658 -0.618949 11.7946 4.59787 8.1051 6.59309 6.18368 7.04729 5.80352 4.40499
-9.64358 -5.5005 -6.10797 -11.4958 -7.39362 -13.099 1.85662 -6.05544 -7.04103 2.87598
2.38657 5.21782 5.7461 4.29412 7.91824 2.65477 6.15322 -2.30358 -0.4238 4.34106
0.962552 5.83665 2.84001 -9.28309 7.15533 -0.069867 4.31006 1.79842 2.08256 4.99282
4.88407 4.54762 5.3652 5.90689 5.34313 6.76352 3.51026 5.04177 3.15135 5.78191
10.2452 5.50779 -1.09593 0.594437 0.655268 172.865 176.1 173.509 179.606 166.848
166.175 170.587 178.505 179.499 72.6038 76.9909 56.3801 -58.1931 -34.29 -31.4186
-29.4233 -23.0634 -39.4069 -45.321 -46.1602 -52.3828 -43.1746 100.834 156.041 162.568
155.598 149.604 -60.8519 -60.7749 -60.43 -60.8457 -57.9519 -60.9082 -56.4847 -56.7932
-56.6626 2.34009 1.1276 170.769 -11.8502 185.003 188.821 187.956 -46.6227 -41.7797
184.126 190.166 190.252 -15.5261 -43.9927 87.0382 -55.308 -55.8615 -56.6537 -56.808
-45.612 191.848 -0.299709 187.776 184.191 187.034 6.79051 -60.3077 109.099 108.866
-58.152 2.80219 -50.8225 -52.8947 -51.4584 -130.745 142.119 -53.6592 161.415 -52.1187
-106.865 -106.797 71.5917 5.48241 1.65726 167.205 163.854 -14.1266 139.272 189.866
189.365 186.84 191.005 188.253 187.792 172.5 191.151 186.446 189.675 190.047
0.530901 0.526372 0.551354 0.619461 0.83586 1.54821 2.134 -4.32995 1.32175 -0.0932328
-4.60365 -6.5387 0.891752 0.46839 0.0071455 -0.214309 -0.251354 -0.198061 -0.120639 -0.0533379
-0.00853275 0.0130948 0.0158674 0.00425507 -35.912 -28.3942 -118.162 -118.717 -38.8549 -38.6609
-47.2437 -39.8548 -38.5356 -46.1705 -49.2828 -32.7767 -88.3098 -73.6406 -38.7972 -31.3261
-73.135 -37.6045 -46.0978 -43.3297 -44.598 -91.1444 -100.144 -114.561 -106.491 -106.442

U 3 2021 float
20.0121 -0.0129668 -0.219629 20.0488 -0.00113119 -0.0756404 19.9343 0.0127577 -0.0962057 19.9384 -0.0143046
-0.609295 20.0116 0.0075119 0.0416549 20.0118 0.00747776 0.0417799 20.1681 0.00142555 0.0606597
20.2355 -0.00111746 0.0692085 20.2846 0.0076305 0.141692 20.323 0.027475 0.265251 20.24
0.022613 0.212503 19.956 0.00897089 0.0198689 19.9898 0.0102896 0.0211893 19.9954 0.0114817
0.0117379 19.8713 0.00408493 0.0132581 19.8683 0.00298843 0.0110979 20.0011 0.0123564 0.00740484
19.8737 0.00211909 0.010531 20.003 0.0129648 0.00574986 19.8761 0.00158613 0.012432 20.0028
0.0136131 0.00471288 19.8762 0.00131196 0.0141136 20.0021 0.01425 0.00357648 19.8755 0.00113191
0.0147766 20.0014 0.0149436 0.00229329 19.8747 0.00108474 0.0144697 20.0007 0.0156653 0.00099629
19.8739 0.0011288 0.0134232 20.0002 0.0164439 -0.0001876 19.873 0.0012581 0.0119901 19.9996
0.0172456 -0.00113228 19.872 0.0014437 0.0105326 20.0001 0.0180588 -0.00198736 19.8711 0.00158797
0.00881114 19.8707 0.00162486 0.00778581 20.0015 0.0185887 -0.00252419 19.9996 -9.37564e-06 3.46663e-05
20 0 0 20 0 0 19.9996 -6.45356e-06 9.1306e-05 19.9984
-5.91021e-05 9.8235e-05 19.9985 -4.42182e-05 0.000296533 19.9945 -8.4026e-05 0.000368085 19.9944 -5.26405e-05
0.000998556 19.9794 0.000540328 0.00030463 19.9803 0.000298528 0.00350078 19.9488 0.0022799 -0.00893396
19.9381 0.000687896 -0.00759904 19.9418 0.0104217 -0.0139125 19.9323 0.00910245 -0.0291355 19.9112
0.0203941 -0.0595094 20.2391 -0.00756113 0.00272789 20.0533 0.000316958 -0.0580051 20.2416 -0.00490858
0.00522171 19.9479 0.0163158 0.00652697 20.0501 0.0121333 0.0911121 20.2352 -0.00117144 0.0687594
19.8762 0.00585785 0.0167528 19.3616 -0.0133459 0.00684761 19.3775 -0.0172504 0.00964242 19.3925
-0.0205336 0.0117919 19.401 -0.0233688 0.0140859 19.406 -0.0257384 0.0158814 19.4099 -0.027867
0.0169217 19.4135 -0.0298046 0.0173255 19.417 -0.0316222 0.0172372 19.4204 -0.0333967 0.016895
19.4235 -0.0350179 0.0165227 19.4272 -0.0371478 0.0158036 19.4295 -0.0385466 0.0152545 20
0 0 19.9997 -7.85713e-08 0.000155142 19.9986 -3.18324e-05 0.000513111 19.9947 -3.07328e-06
0.00170806 19.9808 0.000125203 0.00589983 19.9216 -0.000808083 0.00974274 19.9217 -0.00078969 0.000657909
19.8525 0.00186243 -0.0937675 19.7947 -0.00105157 -0.0680045 19.95 -0.000217915 -1.0355 20.4189
0.0115987 -0.958435 20.2168 0.0164286 -0.509771 19.9323 -0.0134993 -0.63889 20.3528 0.0313848
0.446276 20.3533 0.0314448 0.449587 20.1194 0.0286013 0.514027 19.9937 0.0385191 0.247577
19.8777 0.0426355 0.0914833 19.7162 0.0242943 -0.00127232 18.878 0.0119095 0.0879904 19.3566
-0.0121254 0.00597367 19.3602 -0.0120697 0.00642394 17.6734 -0.0229423 0.0192014 18.4881 -0.00738531