# vtk DataFile Version 2.0
tracks
ASCII
DATASET POLYDATA
POINTS 2585 float
-1.001 -0.05 0.0011 -0.900789 -0.0500215 0.00109731 -0.800577 -0.050043 0.00109463 -0.700366 -0.0500644
0.00109196 -0.600155 -0.0500858 0.0010893 -0.499943 -0.0501071 0.00108664 -0.424945 -0.050111 0.00107894
-0.349947 -0.0501518 0.00106881 -0.274949 -0.0501922 0.00105877 -0.19995 -0.0502323 0.00104883 -0.124952
-0.050272 0.00103898 -0.0499538 -0.0502814 0.00103922 0.0250446 -0.05029 0.00104795 0.100043 -0.0502988
0.00105677 0.175041 -0.0503076 0.00106565 0.25004 -0.0503165 0.00107461 0.400037 -0.0503103 0.00109069
0.550035 -0.0503083 0.0011049 0.700032 -0.0503063 0.0011193 0.85003 -0.0503042 0.00113388 1.00003
-0.0503021 0.00114866 1.15003 -0.0503128 0.00115586 1.30002 -0.0503183 0.00116033 1.45002 -0.0503239
0.00116481 1.60002 -0.0503295 0.00116931 1.75002 -0.0503351 0.00117383 1.90002 -0.0503436 0.0011767
2.05002 -0.0503499 0.00117862 2.20001 -0.0503563 0.00118055 2.35001 -0.0503627 0.00118247 2.50001
-0.0503691 0.00118441 2.65001 -0.050377 0.00118545 2.80001 -0.0503849 0.00118613 2.95001 -0.0503929
0.00118681 3.10001 -0.0504009 0.0011875 3.25001 -0.0504088 0.00118818 3.40001 -0.0504166 0.00118846
3.55001 -0.0504253 0.00118903 3.70001 -0.050434 0.0011896 3.85001 -0.0504427 0.00119016 4.00001
-0.0504514 0.00119073 4.15 -0.0504591 0.00119081 4.3 -0.0504686 0.00119147 4.45 -0.0504781
0.00119213 4.6 -0.0504876 0.0011928 4.75 -0.0504971 0.00119346 4.9 -0.0505046 0.00119346
5.05 -0.0505146 0.00119428 5.2 -0.0505246 0.0011951 5.35 -0.0505345 0.00119592 5.5
-0.0505445 0.00119675 5.65 -0.050552 0.0011967 5.8 -0.0505623 0.00119768 5.95 -0.0505726
0.00119866 6.1 -0.0505829 0.00119965 6.25 -0.0505932 0.00120063 6.4 -0.0506006 0.00120056
6.55 -0.0506111 0.00120168 6.7 -0.0506215 0.00120279 6.85 -0.0506321 0.00120391 7
-0.0506426 0.00120503 7.15 -0.0506499 0.00120494 7.3 -0.0506605 0.00120617 7.45 -0.0506712
0.00120739 7.6 -0.0506819 0.00120862 7.75 -0.0506925 0.00120985 7.9 -0.0506998 0.00120974
8.05 -0.0507105 0.00121106 8.2 -0.0507213 0.00121237 8.35 -0.0507321 0.00121369 8.5
-0.0507429 0.001215 8.65 -0.0507501 0.0012149 8.8 -0.0507609 0.00121629 8.95 -0.0507717
0.00121768 9.1 -0.0507826 0.00121907 9.25 -0.0507935 0.00122047 9.4 -0.0508006 0.00122034
9.55 -0.0508572 0.00122244 9.7 -0.0509647 0.00122526 9.85 -0.0511231 0.0012288 10
-0.0513324 0.00123306 -1.001 -0.05 0.0537316 -0.900807 -0.0501055 0.0535766 -0.800614 -0.0502112
0.0533944 -0.700421 -0.0503402 0.0531785 -0.600229 -0.0505 0.0529269 -0.500035 -0.0506905 0.0526398
-0.425004 -0.0509377 0.0524171 -0.349973 -0.051274 0.0521272 -0.274943 -0.0516575 0.0518584 -0.199912
-0.0520745 0.0516319 -0.124879 -0.0524758 0.0514878 -0.0498864 -0.0527407 0.0515247 0.0251064 -0.052959
0.0516904 0.100099 -0.0531726 0.0519245 0.175092 -0.0533953 0.0522069 0.250087 -0.0536133 0.0525243
0.400077 -0.053996 0.0531601 0.550067 -0.0543764 0.0536751 0.700057 -0.0547158 0.0541415 0.850047
-0.0550142 0.0545587 1.00003 -0.0552794 0.0549263 1.14678 -0.0556448 0.0552046 1.29353 -0.0559788
0.0554642 1.44028 -0.0563102 0.0556903 1.58703 -0.0566389 0.0558826 1.70438 -0.0568999 0.0560094
1.7135 -0.0569209 0.0560179 1.72263 -0.0569421 0.0560263 1.73176 -0.0569633 0.0560347 1.74089
-0.0569847 0.0560429 1.75002 -0.0570062 0.0560511 1.90002 -0.0573607 0.0561844 2.05002 -0.0577109
0.0563004 2.20001 -0.0580572 0.0563988 2.35001 -0.0583997 0.0564795 2.50001 -0.0587383 0.0565425
2.65001 -0.0590822 0.0565945 2.80001 -0.0594256 0.0566396 2.95001 -0.0597682 0.0566771 3.10001
-0.06011 0.056707 3.25001 -0.060451 0.0567291 3.40001 -0.0607931 0.0567462 3.55001 -0.0611365
0.0567625 3.70001 -0.0614783 0.0567768 3.85001 -0.0618187 0.0567891 4.00001 -0.0621576 0.0567993
4.15 -0.0624945 0.0568072 4.3 -0.062835 0.056816 4.45 -0.063174 0.0568241 4.6
-0.0635116 0.0568315 4.75 -0.0638477 0.0568381 4.9 -0.0641791 0.0568424 5.05 -0.0645158
0.0568486 5.2 -0.0648511 0.0568545 5.35 -0.065185 0.05686 5.5 -0.0655176 0.0568651
5.65 -0.0658436 0.0568676 5.8 -0.0661758 0.0568727 5.95 -0.0665069 0.0568775 6.1
-0.0668367 0.0568821 6.25 -0.0671653 0.0568864 6.4 -0.0674861 0.0568879 6.55 -0.0678139
0.0568923 6.7 -0.0681405 0.0568965 6.85 -0.068466 0.0569006 7 -0.0687902 0.0569046
7.15 -0.0691059 0.0569053 7.3 -0.0694291 0.0569093 7.45 -0.0697512 0.0569131 7.6
-0.0700721 0.0569169 7.75 -0.0703918 0.0569206 7.9 -0.0707024 0.0569207 8.05 -0.071021
0.0569245 8.2 -0.0713384 0.0569283 8.35 -0.0716547 0.056932 8.5 -0.0719698 0.0569357
8.65 -0.0722755 0.0569357 8.8 -0.0725893 0.0569395 8.95 -0.072902 0.0569432 9.1
-0.0732135 0.0569467 9.25 -0.0735239 0.0569502 9.4 -0.0738244 0.0569498 9.55 -0.0741338
0.0569533 9.7 -0.0744427 0.0569568 9.85 -0.0747511 0.0569603 10 -0.0750591 0.0569637
-1.001 -0.05 0.106363 -0.900818 -0.0500774 0.106138 -0.800636 -0.0501525 0.105866 -0.700455
-0.0502541 0.105547 -0.600274 -0.0504256 0.105006 -0.50009 -0.0506667 0.104244 -0.424996 -0.0509527
0.103658 -0.349901 -0.0512998 0.103053 -0.274807 -0.051651 0.102516 -0.199711 -0.0519476 0.102086
-0.124607 -0.0522882 0.101984 -0.0496047 -0.0525345 0.102097 0.0253974 -0.0527255 0.102327 0.100399
-0.0529037 0.102639 0.175401 -0.0531022 0.103036 0.250411 -0.0533209 0.103517 0.400346 -0.0537236
0.104518 0.550283 -0.054125 0.10539 0.70022 -0.0544877 0.106175 0.850157 -0.05482 0.106793
1.00009 -0.0551216 0.107243 1.15007 -0.0555588 0.107507 1.30006 -0.0558523 0.107804 1.45005
-0.0560952 0.10808 1.60003 -0.0563321 0.108324 1.75002 -0.0565632 0.108534 1.90002 -0.0568686
0.108679 2.05002 -0.0571102 0.108834 2.20001 -0.0573461 0.108973 2.35001 -0.0575794 0.109095
2.50001 -0.0578103 0.1092 2.65001 -0.058098 0.109269 2.80001 -0.0583432 0.109337 2.95001
-0.0585872 0.109397 3.10001 -0.0588306 0.109449 3.25001 -0.0590732 0.109494 3.40001 -0.0593593
0.109529 3.55001 -0.0596085 0.109562 3.70001 -0.0598558 0.109593 3.85001 -0.0601016 0.109623
4 -0.0603458 0.10965 4.15 -0.0606259 0.109676 4.3 -0.0608751 0.109697 4.45
-0.0611225 0.109717 4.6 -0.0613684 0.109737 4.75 -0.0616128 0.109756 4.9 -0.0618864
0.109779 5.05 -0.0621338 0.109794 5.2 -0.0623795 0.109809 5.35 -0.0626238 0.109823
5.5 -0.0628667 0.109837 5.65 -0.063134 0.109858 5.8 -0.0633789 0.109869 5.95
-0.0636223 0.10988 6.1 -0.0638644 0.10989 6.25 -0.0641052 0.1099 6.4 -0.0643666
0.10992 6.55 -0.0646086 0.109928 6.7 -0.0648493 0.109936 6.85 -0.0650887 0.109943
7 -0.065327 0.10995 7.15 -0.0655826 0.109969 7.3 -0.0658215 0.109975 7.45
-0.0660591 0.10998 7.6 -0.0662956 0.109985 7.75 -0.0665309 0.109991 7.9 -0.0667809
0.110008 8.05 -0.0670166 0.110012 8.2 -0.067251 0.110016 8.35 -0.0674843 0.110019
8.5 -0.0677165 0.110023 8.65 -0.067961 0.11004 8.8 -0.0681932 0.110043 8.95
-0.0684242 0.110046 9.1 -0.0686539 0.110048 9.25 -0.0688826 0.11005 9.4 -0.0691215
0.110067 9.55 -0.0693505 0.110068 9.7 -0.0695788 0.110069 9.85 -0.0698067 0.11007
10 -0.0700341 0.110071 -1.001 -0.05 0.158995 -0.900796 -0.0500879 0.15877 -0.800593
-0.0501916 0.158425 -0.700392 -0.0503522 0.157689 -0.600196 -0.0505825 0.156477 -0.499992 -0.0508742
0.154638 -0.42472 -0.0514798 0.153035 -0.349436 -0.0519453 0.152114 -0.274149 -0.0523398 0.151551
-0.198859 -0.0527322 0.151257 -0.123699 -0.0530468 0.15131 -0.0487804 -0.0531673 0.151473 0.0261373
-0.0532428 0.151954 0.101053 -0.0533794 0.152659 0.175968 -0.0535428 0.153457 0.250944 -0.0536936
0.154285 0.400784 -0.0538996 0.155706 0.550625 -0.0544003 0.156884 0.700468 -0.054867 0.157638
0.850313 -0.0552605 0.158236 1.00014 -0.0556231 0.158666 1.15012 -0.0561222 0.158911 1.30009
-0.056477 0.159189 1.45007 -0.0567393 0.159457 1.60005 -0.0569253 0.159711 1.75002 -0.0571055
0.159933 1.90002 -0.057361 0.160088 2.05002 -0.0575522 0.160254 2.20002 -0.0577314 0.160405
2.35001 -0.0579018 0.160542 2.50001 -0.0580699 0.160661 2.65001 -0.0582952 0.160745 2.80001
-0.0584779 0.160827 2.95001 -0.0586584 0.160902 3.10001 -0.0588373 0.16097 3.25001 -0.0590156
0.161031 3.40001 -0.0592373 0.161081 3.55001 -0.0594223 0.161129 3.70001 -0.0596046 0.161177
3.85001 -0.0597846 0.161223 4 -0.0599631 0.161266 4.15 -0.0601773 0.161309 4.3
-0.0603609 0.161347 4.45 -0.0605419 0.161384 4.6 -0.0607208 0.161421 4.75 -0.0608983
0.161457 4.9 -0.0611047 0.161496 5.05 -0.0612852 0.161528 5.2 -0.0614634 0.16156
5.35 -0.0616397 0.161592 5.5 -0.0618147 0.161623 5.65 -0.0620137 0.161661 5.8
-0.0621907 0.161689 5.95 -0.0623657 0.161717 6.1 -0.0625391 0.161744 6.25 -0.0627112
0.161772 6.4 -0.0629033 0.161808 6.55 -0.0630766 0.161833 6.7 -0.0632482 0.161858
6.85 -0.0634182 0.161883 7 -0.063587 0.161907 7.15 -0.0637726 0.161943 7.3
-0.0639421 0.161965 7.45 -0.06411 0.161988 7.6 -0.0642764 0.16201 7.75 -0.0644417
0.162032 7.9 -0.0646212 0.162067 8.05 -0.0647868 0.162088 8.2 -0.064951 0.162108
8.35 -0.0651139 0.162129 8.5 -0.0652756 0.162149 8.65 -0.0654492 0.162183 8.8
-0.0656109 0.162203 8.95 -0.0657711 0.162223 9.1 -0.0659299 0.162242 9.25 -0.0660876
0.16226 9.4 -0.0662551 0.162293 9.55 -0.0664131 0.162311 9.7 -0.0665702 0.162329
9.85 -0.0667266 0.162346 10 -0.0668826 0.162363 -1.001 -0.05 0.211626 -0.947632
-0.0500802 0.211469 -0.894265 -0.050165 0.211279 -0.840897 -0.0502543 0.211055 -0.78753 -0.0503881
0.210764 -0.724312 -0.0506314 0.210286 -0.679435 -0.0509084 0.209635 -0.634563 -0.0512426 0.208756
-0.589693 -0.0515806 0.20774 -0.544827 -0.0519236 0.206587 -0.499928 -0.0522728 0.205293 -0.46944
-0.052566 0.20424 -0.438955 -0.0528693 0.203124 -0.408465 -0.053157 0.202134 -0.377971 -0.0534304
0.201266 -0.32982 -0.0538467 0.200029 -0.288816 -0.0541851 0.199121 -0.247808 -0.0545233 0.198428
-0.206796 -0.0548654 0.198048 -0.165781 -0.0551722 0.197957 -0.124884 -0.0554042 0.198129 -0.0496124
-0.0557067 0.198838 0.0256571 -0.0558402 0.199787 0.100922 -0.0559458 0.201067 0.176185 -0.0560847
0.202427 0.251487 -0.056217 0.203581 0.252001 -0.0562177 0.203588 0.252515 -0.0562185 0.203594
0.253029 -0.0562192 0.203601 0.253543 -0.05622 0.203608 0.254061 -0.0562208 0.203615 0.328303
-0.0563304 0.204584 0.402547 -0.0564422 0.205428 0.476791 -0.0565561 0.206145 0.551037 -0.0566989
[...]
POINT_DATA 2585
FIELD attributes 4
age 1 2585 float
0 0.00501121 0.0100224 0.0150336 0.0200448 0.025056 0.0288056 0.0325533 0.036301 0.0400488 0.0437965
0.0475449 0.0512905 0.0550361 0.0587817 0.0625272 0.070024 0.0775229 0.0850219 0.0925209 0.10002
0.10752 0.115019 0.122519 0.130019 0.137519 0.145019 0.152519 0.160019 0.167518 0.175018
0.182518 0.190018 0.197517 0.205017 0.212517 0.220017 0.227516 0.235016 0.242516 0.250015
0.257515 0.265015 0.272515 0.280015 0.287514 0.295014 0.302514 0.310014 0.317513 0.325013
0.332513 0.340013 0.347512 0.355012 0.362512 0.370012 0.377512 0.385011 0.392511 0.400011
0.407511 0.415011 0.42251 0.43001 0.43751 0.44501 0.45251 0.460009 0.467509 0.475009
0.482509 0.490009 0.497508 0.505008 0.512508 0.520008 0.527507 0.535005 0.542503 0.55
0 0.00502603 0.0100533 0.0150747 0.0200879 0.025093 0.028832 0.0325652 0.0362916 0.0400113
0.0437247 0.0474308 0.0511301 0.0548275 0.0585248 0.0622239 0.0696346 0.0770707 0.0845215 0.0919871
0.0994673 0.106799 0.114132 0.121466 0.128801 0.134668 0.135124 0.135581 0.136037 0.136493
0.13695 0.14445 0.15195 0.15945 0.166949 0.174447 0.181945 0.189442 0.19694 0.204437
0.211934 0.219431 0.226928 0.234425 0.241922 0.249419 0.256917 0.264414 0.271912 0.27941
0.286907 0.294406 0.301904 0.309402 0.3169 0.324398 0.331897 0.339395 0.346894 0.354393
0.361891 0.369391 0.37689 0.384389 0.391888 0.399387 0.406887 0.414386 0.421886 0.429385
0.436885 0.444385 0.451885 0.459385 0.466885 0.474386 0.481887 0.489387 0.496888 0.504388
0.511889 0.519391 0.526892 0.534393 0.541894 0.549394 0 0.00502801 0.0100578 0.0150819
0.0200994 0.0251105 0.0288575 0.0325975 0.0363282 0.040054 0.0437702 0.0474748 0.0511738 0.0548716
0.0585685 0.0622649 0.0696632 0.0770887 0.0845322 0.0919978 0.0994851 0.106988 0.114493 0.122
0.129508 0.137018 0.144533 0.152042 0.15955 0.167058 0.174565 0.182077 0.189583 0.197089
0.204594 0.212099 0.219611 0.227115 0.234621 0.242126 0.249631 0.257143 0.264648 0.272154
0.279659 0.287165 0.294678 0.302183 0.309689 0.317195 0.324701 0.332214 0.339721 0.347227
0.354733 0.362239 0.369753 0.37726 0.384766 0.392273 0.399779 0.407294 0.414801 0.422307
0.429815 0.437322 0.444836 0.452344 0.459851 0.467358 0.474866 0.482381 0.489889 0.497396
0.504904 0.512412 0.519928 0.527436 0.534944 0.542452 0.549961 0 0.00503012 0.0100663
0.0150996 0.020127 0.0251495 0.0289153 0.0326692 0.0364111 0.0401426 0.0438574 0.0475524 0.0512419
0.0549303 0.058618 0.0623092 0.0696963 0.0771197 0.0845737 0.0920442 0.0995358 0.107048 0.114561
0.12208 0.129602 0.137125 0.144655 0.152178 0.159701 0.167223 0.174745 0.182273 0.189794
0.197315 0.204835 0.212355 0.219882 0.227402 0.234922 0.242443 0.249963 0.25749 0.265011
0.272531 0.280052 0.287573 0.295101 0.302622 0.310143 0.317664 0.325185 0.332713 0.340234
0.347756 0.355277 0.362799 0.370328 0.377849 0.385371 0.392893 0.400415 0.407944 0.415466
0.422989 0.430511 0.438033 0.445563 0.453085 0.460608 0.468131 0.475654 0.483184 0.490707
0.49823 0.505753 0.513276 0.520807 0.52833 0.535853 0.543377 0.5509 0 0.00268271
0.00536711 0.00805319 0.0107386 0.0139177 0.0161729 0.0184278 0.0206819 0.0229352 0.0251894 0.0267177
0.0282439 0.0297673 0.0312876 0.0336827 0.0357146 0.0377408 0.0397615 0.0417766 0.0437803 0.047459
0.0511391 0.0548204 0.0585083 0.062209 0.0622343 0.0622596 0.0622849 0.0623103 0.0623358 0.0659931
0.0696604 0.0733376 0.077025 0.0807223 0.0813114 0.0819004 0.0824895 0.0830787 0.0836535 0.0868137
0.0899764 0.0931418 0.0963097 0.0994797 0.107 0.114522 0.122049 0.129581 0.137117 0.14466
0.152197 0.159734 0.16727 0.174807 0.182349 0.189885 0.19742 0.204955 0.212489 0.220031
0.227565 0.2351 0.242635 0.250169 0.257711 0.265246 0.272781 0.280317 0.287852 0.295394
0.30293 0.310465 0.318001 0.325537 0.33308 0.340616 0.348152 0.355688 0.363224 0.370767
0.378303 0.38584 0.393376 0.400913 0.408457 0.415993 0.42353 0.431067 0.438604 0.446148
0.453685 0.461223 0.46876 0.476297 0.483842 0.491379 0.498917 0.506455 0.513993 0.521538
0.529076 0.536614 0.544152 0.55169 0 0.00126444 0.00252926 0.00379477 0.00506107 0.00632819
0.0101157 0.0139116 0.017719 0.0215331 0.0253296 0.0269124 0.028485 0.0300508 0.0316094 0.0329975
0.0333244 0.0336509 0.0339771 0.0343031 0.034629 0.0364572 0.0382783 0.0400905 0.0418974 0.0436949
0.0454954 0.0473005 0.0491176 0.0509396 0.0527658 0.0529213 0.0530768 0.0532323 0.0533878 0.0535512
0.0552255 0.0569025 0.0585822 0.0602648 0.0619501 0.0656458 0.0693585 0.0730892 0.0768308 0.0805812
0.0843448 0.0881075 0.0918709 0.095637 0.0994055 0.106941 0.114479 0.122021 0.129567 0.137117
0.144682 0.152235 0.159788 0.16734 0.174893 0.182453 0.190005 0.197556 0.205107 0.212658
0.220217 0.227767 0.235318 0.242869 0.25042 0.257978 0.26553 0.273081 0.280632 0.288183
0.295742 0.303294 0.310845 0.318397 0.325949 0.333508 0.34106 0.348612 0.356164 0.363716
0.371276 0.378828 0.38638 0.393932 0.401485 0.409045 0.416597 0.42415 0.431703 0.439256
0.446816 0.454369 0.461922 0.469475 0.477028 0.484589 0.492142 0.499695 0.507248 0.514802
0.522363 0.529916 0.53747 0.545023 0.552577 0 0.00126545 0.00253141 0.00379788 0.00506487
0.0063324 0.00822677 0.0101235 0.0120228 0.0139248 0.015829 0.0177464 0.0196688 0.0215921 0.0235186
0.0254573 0.0264284 0.0273969 0.0283609 0.0293205 0.0302799 0.0307554 0.0312293 0.0317012 0.0321709
0.0326834 0.0331392 0.0335928 0.0340445 0.0344943 0.0349414 0.0358518 0.036759 0.0376621 0.0385609
0.0394508 0.0403399 0.0412277 0.0421146 0.0430013 0.0438885 0.0452455 0.0466093 0.0479802 0.04933
0.0528834 0.0547123 0.056555 0.058409 0.0602698 0.0621313 0.0640026 0.0658752 0.0677499 0.0696273
0.0715087 0.0733974 0.0752805 0.07716 0.0790413 0.0809276 0.084037 0.0871504 0.0902655 0.093382
0.0960231 0.0968025 0.0975821 0.0983618 0.0991417 0.0999217 0.107515 0.11511 0.122709 0.130311
0.137918 0.14555 0.153157 0.160759 0.168361 0.175962 0.183583 0.191182 0.19878 0.206378
0.213975 0.221591 0.229188 0.236784 0.24438 0.251976 0.259591 0.267187 0.274782 0.282378
0.289974 0.297587 0.305182 0.312777 0.320373 0.327968 0.33558 0.343175 0.35077 0.358365
0.36596 0.37357 0.381165 0.388759 0.396354 0.403949 0.411557 0.419152 0.426746 0.43434
0.441935 0.449542 0.457137 0.46473 0.472324 0.479918 0.487525 0.495119 0.502712 0.510305
0.517899 0.525504 0.533097 0.54069 0.548283 0.555877 0 0.00126279 0.00252625 0.00379074
0.00505641 0.00632326 0.00823328 0.0101453 0.0120611 0.0139802 0.0159046 0.0178219 0.0197521 0.0216952
0.023651 0.0256292 0.0266291 0.0276298 0.028631 0.0296315 0.0306438 0.0308908 0.0311379 0.0313847
0.0316295 0.0318191 0.0325702 0.0333088 0.0340344 0.0347464 0.0354506 0.0358978 0.0363433 0.0367872
0.0372297 0.0376662 0.0381037 0.0385384 0.0389705 0.039402 0.0398309 0.0402628 0.0406947 0.0411267
0.0415593 0.0419944 0.0424299 0.0428647 0.0432998 0.0437358 0.0441741 0.045051 0.0459372 0.0468337
0.0477417 0.0486671 0.049429 0.0501897 0.0509528 0.0517194 0.0526677 0.0528059 0.0529442 0.0530826
0.053221 0.0533596 0.0543136 0.0552667 0.0562217 0.0571789 0.0581384 0.0591071 0.0600747 0.0610434
0.0620152 0.0629887 0.0649574 0.0669208 0.0688786 0.0708407 0.0727864 0.0747176 0.0766639 0.0786256
0.0805911 0.0825609 0.0865198 0.0904703 0.0943949 0.0983051 0.102218 0.110043 0.117835 0.125557
0.133222 0.14089 0.148588 0.156263 0.163935 0.171601 0.179266 0.186947 0.19461 0.202272
0.209931 0.21759 0.225264 0.232922 0.240579 0.248235 0.255891 0.26356 0.271215 0.27887
0.286523 0.294177 0.301842 0.309495 0.317148 0.324799 0.33245 0.340112 0.347763 0.355414
0.363063 0.370712 0.378371 0.38602 0.393668 0.401316 0.408963 0.416619 0.424266 0.431912
0.439557 0.447203 0.454856 0.462501 0.470145 0.477789 0.485432 0.493082 0.500726 0.508368
0.51601 0.523651 0.531298 0.538939 0.54658 0.55422 0.561861 0 0.00126441 0.00252947
0.00379518 0.00506154 0.00632915 0.00824619 0.0101656 0.0120884 0.0140174 0.0159587 0.0169287 0.0179017
0.0188778 0.0198571 0.0208396 0.0218272 0.022823 0.0238277 0.0248414 0.0258656 0.0263832 0.0269026
0.0274257 0.0279523 0.0284854 0.0287752 0.0290664 0.02936 0.0296562 0.0297542 0.0300546 0.0303565
0.0306592 0.0309617 0.0312725 0.0313701 0.0314676 0.0315654 0.0316633 0.0317346 0.0317686 0.0318026
0.0318365 0.0318705 0.0319029 0.0320666 0.0322301 0.0323936 0.0325568 0.0327214 0.0328999 0.0330779
0.0332554 0.0334301 0.033559 0.033665 0.0337704 0.0338752 0.033979 0.0340844 0.0341955 0.0343051
0.0344132 0.0345203 0.0346077 0.0346611 0.0347143 0.0347671 0.0348196 0.034871 0.0349691 0.0350668
0.0351641 0.0352608 0.0353555 0.0354768 0.0355967 0.0357151 0.0358324 0.0360227 0.0361244 0.0362257
0.0363267 0.0364274 0.036518 0.0366063 0.0366947 0.0367832 0.0368715 0.0370342 0.0371539 0.0372734
0.0373928 0.0375119 0.0376295 0.0378483 0.0380656 0.0382829 0.0385007 0.038715 0.0389329 0.0391502
0.0393679 0.0395859 0.0398037 0.0400243 0.0402434 0.0404627 0.0406822 0.0409025 0.0411225 0.0413421
0.041562 0.0417826 0.0420056 0.0422298 0.0424523 0.0426748 0.042898 0.0431222 0.0434694 0.0438183
0.0441732 0.044534 0.0446961 0.0448462 0.0449967 0.0451475 0.0452986 0.0454507 0.0459371 0.0464166
0.0468963 0.0473717 0.0478673 0.0483833 0.048889 0.0493955 0.0499067 0.0504252 0.0505081 0.0505911
0.0506744 0.0507579 0.0508393 0.0518353 0.0528736 0.0539564 0.0549984 0.0560523 0.0572543 0.0584336
0.0596141 0.0608007 0.0619873 0.0624191 0.0628498 0.0632802 0.0637109 0.0642011 0.0649721 0.0657357
0.0664963 0.0672589 0.0680203 0.0681583 0.068296 0.0684333 0.0685701 0.0687058 0.0697553 0.0708014
0.0718457 0.072888 0.0739255 0.0750779 0.076251 0.0774278 0.0786062 0.079787 0.0813148 0.0828438
0.0843798 0.0859184 0.0879214 0.0885951 0.0892661 0.0899346 0.0906006 0.0912636 0.0957697 0.100251
0.104659 0.108977 0.113163 0.121335 0.129443 0.13748 0.145444 0.153329 0.161089 0.16885
0.176608 0.184363 0.192115 0.199863 0.207612 0.215359 0.223103 0.230846 0.238249 0.245651
0.253052 0.260451 0.267989 0.268298 0.268607 0.268916 0.269225 0.269534 0.277268 0.285001
0.292735 0.300469 0.308203 0.315929 0.323662 0.331396 0.33913 0.346863 0.354582 0.362315
0.370048 0.377781 0.385514 0.393227 0.400959 0.408692 0.416424 0.424157 0.431863 0.439594
0.447326 0.455058 0.462789 0.47049 0.47822 0.485951 0.493681 0.501412 0.509107 0.516837
0.524566 0.532295 0.540024 0.547713 0.55544 0.563168 0.570895 0.578623 0 0.00125411
0.00250916 0.00376553 0.00502334 0.00628272 0.00821403 0.010148 0.0120848 0.0140287 0.0159868 0.0169595
0.0179361 0.0189167 0.0199014 0.0208902 0.0218846 0.0228899 0.0239068 0.0249355 0.0259772 0.0265058
0.0270376 0.0275762 0.0281216 0.0286758 0.0292414 0.0298146 0.0304009 0.0310011 0.0316279 0.0319468
0.0322657 0.0325852 0.0329058 0.0332409 0.0333109 0.0333809 0.0334509 0.0335209 0.0335782 0.0336563
0.0337329 0.0338085 0.0338835 0.0339463 0.0341174 0.0342853 0.0344499 0.034611 0.0347775 0.0349204
0.0350605 0.0351979 0.0353321 0.0354515 0.0355716 0.0356912 0.0358103 0.0359277 0.0360393 0.0361568
0.0362712 0.0363826 0.0364934 0.0366398 0.0367468 0.0368536 0.0369602 0.0370666 0.0371642 0.0373594
0.0375546 0.0377532 0.0379548 0.0383707 0.0386082 0.0388466 0.0390826 0.0393166 0.0395456 0.0400101
0.0404681 0.0409222 0.041373 0.0418187 0.0422759 0.0427181 0.0431637 0.0436124 0.0440641 0.0445376
0.0450051 0.045484 0.0459675 0.046459 0.0473276 0.0482165 0.0491194 0.0500045 0.0517951 0.0529177
0.0540426 0.055191 0.0563596 0.0575611 0.0588197 0.0600511 0.0612655 0.0624893 0.0637197 0.0646282
0.0655233 0.0664174 0.067306 0.0685083 0.0687912 0.0690741 0.0693573 0.069641 0.0699251 0.0706818
0.0714403 0.072198 0.0729569 0.0738886 0.0743395 0.0747902 0.0752407 0.07569 0.0761374 0.0773789
0.0786248 0.0798783 0.0811328 0.0823865 0.0848756 0.0873684 0.089831 0.0922502 0.0946441 0.0994734
0.104256 0.108899 0.113405 0.117758 0.121756 0.125738 0.129703 0.133652 0.138816 0.142875
0.14689 0.150863 0.154793 0.158681 0.166441 0.174208 0.181974 0.189738 0.197502 0.205246
0.213008 0.220769 0.22853 0.23629 0.244023 0.251782 0.259541 0.2673 0.275059 0.282784
0.290541 0.298299 0.306057 0.313814 0.321532 0.329289 0.337045 0.344802 0.352559 0.36027
0.368025 0.375781 0.383536 0.391292 0.398997 0.406751 0.414505 0.42226 0.430014 0.437713
0.445466 0.453218 0.460971 0.468724 0.476418 0.484169 0.49192 0.499671 0.507422 0.515111
0.52286 0.530609 0.538359 0.546108 0.553791 0.561537 0.569283 0.577029 0.584776 0
0.00125903 0.00251874 0.00377913 0.00504094 0.00630439 0.00823308 0.0101647 0.0120993 0.0140412 0.0159973
0.0169702 0.0179472 0.0189282 0.0199135 0.0209031 0.0218976 0.0229026 0.0239194 0.0249479 0.0259894
0.0265185 0.0270503 0.027588 0.0281323 0.028686 0.029249 0.0298197 0.0303998 0.0309926 0.0316149
0.0319311 0.0322479 0.0325651 0.0328824 0.0332121 0.0334505 0.0336874 0.0339224 0.0341513 0.034248
0.0343514 0.0344538 0.0345551 0.0346553 0.0347581 0.0349596 0.0351543 0.0353424 0.0355244 0.0356792
0.0357579 0.0358362 0.0359138 0.0359906 0.036066 0.0360682 0.0360703 0.0360724 0.0360745 0.0360767
0.0362204 0.0363628 0.0365038 0.0366435 0.0368471 0.0369232 0.0369992 0.0370751 0.0371509 0.0372228
0.0376816 0.0381453 0.0386223 0.0391069 0.0395209 0.0399825 0.0404334 0.0408828 0.0413343 0.0417933
0.0422687 0.0427344 0.0431968 0.0436616 0.0441357 0.0446269 0.0451089 0.0455856 0.0460675 0.0465631
0.0475942 0.0486476 0.0497127 0.0507973 0.0517039 0.0517466 0.0517893 0.051832 0.0518747 0.0519173
0.0530429 0.0541952 0.055375 0.0565778 0.0577993 0.0590685 0.0603155 0.0615433 0.0627879 0.0640265
0.0646487 0.0652617 0.0658722 0.0664813 0.0670922 0.0677171 0.0683323 0.0689393 0.0695468 0.0701604
0.0714084 0.0726663 0.0739212 0.0751709 0.0764102 0.0772541 0.0780898 0.0789264 0.0797651 0.0807122
0.0811017 0.0814913 0.081881 0.0822714 0.0826625 0.0851693 0.0876613 0.0901381 0.0925579 0.0949488
0.0997056 0.104415 0.109014 0.113498 0.117839 0.125193 0.132446 0.139565 0.146555 0.159057
0.164535 0.170012 0.175487 0.180961 0.186576 0.18882 0.191063 0.193307 0.19555 0.197793
0.205532 0.213273 0.221014 0.228755 0.236494 0.244222 0.251961 0.2597 0.267438 0.275177
0.282897 0.290634 0.298372 0.30611 0.313848 0.321561 0.329298 0.337036 0.344773 0.35251
0.360217 0.367953 0.375689 0.383426 0.391162 0.398863 0.406598 0.414334 0.422069 0.429805
0.4375 0.445234 0.452968 0.460703 0.468437 0.476127 0.48386 0.491593 0.499326 0.507059
0.514744 0.522475 0.530207 0.537938 0.54567 0.553349 0.561078 0.568807 0.576536 0.584265
0 0.00127992 0.00256048 0.00384229 0.00512559 0.00641038 0.00831681 0.0102258 0.0121374 0.0140556
0.0159859 0.0169579 0.0179331 0.0189115 0.0198934 0.0208788 0.021873 0.0228762 0.0238893 0.0249123
0.0259475 0.0263903 0.0268347 0.0272826 0.0277339 0.0278574 0.0280061 0.0281551 0.0283042 0.0284534
0.0286029 0.0291463 0.029694 0.0302489 0.0308126 0.0313973 0.0314726 0.0315479 0.0316232 0.0316985
0.0317639 0.0319809 0.0321978 0.0324146 0.0326313 0.0328514 0.0329314 0.0330113 0.0330911 0.0331707
0.0332397 0.0334506 0.0336607 0.0338697 0.0340754 0.0342874 0.03435 0.0344121 0.0344738 0.0345351
0.0345882 0.0345934 0.0345986 0.0346038 0.034609 0.0346142 0.0348295 0.0350402 0.0352465 0.0354453
0.0356357 0.0356574 0.0356791 0.0357008 0.0357224 0.0357444 0.0358463 0.0359473 0.0360472 0.0361484
0.036293 0.0363866 0.0364796 0.036572 0.0366634 0.0367524 0.0368563 0.0369594 0.0370621 0.0371649
0.0373132 0.0374123 0.0375111 0.03761 0.0377097 0.037807 0.0380188 0.0382288 0.0384382 0.038647
0.0388591 0.039079 0.0392944 0.0395055 0.0397167 0.0399306 0.0401467 0.0403611 0.0405746 0.0407886
0.0410052 0.0412262 0.0414438 0.04166 0.0418766 0.0420942 0.0423131 0.0425304 0.0427476 0.0429651
0.043184 0.0436292 0.0440747 0.0445235 0.0449757 0.0454361 0.0459154 0.0463825 0.0468413 0.0473032
0.0477787 0.0482618 0.0487429 0.049224 0.049709 0.0502019 0.0512195 0.0522427 0.0532779 0.0543669
0.0554729 0.0558283 0.056184 0.0565408 0.0568991 0.0572769 0.0580783 0.0588791 0.0596795 0.0604837
0.061296 0.0624969 0.0636737 0.0648573 0.0660558 0.0672492 0.068477 0.0696808 0.0708619 0.0720366
0.0732034 0.0736519 0.0740997 0.0745479 0.0749965 0.0754367 0.0757601 0.0760836 0.0764074 0.0767313
0.077064 0.0774656 0.0778674 0.0782696 0.0786721 0.0790749 0.0814221 0.0837711 0.0861195 0.0884376
0.0907279 0.0952399 0.0998043 0.104275 0.108601 0.112819 0.121129 0.129409 0.137626 0.145671
0.153547 0.161288 0.169029 0.176767 0.184501 0.192233 0.19996 0.207687 0.215413 0.223137
0.230859 0.237783 0.244707 0.25163 0.258552 0.265486 0.266278 0.26707 0.267862 0.268653
0.269445 0.277159 0.284873 0.292587 0.300302 0.308016 0.315723 0.323437 0.331151 0.338865
0.346579 0.35428 0.361993 0.369707 0.377421 0.385135 0.392829 0.400542 0.408256 0.415969
0.423682 0.431372 0.439084 0.446796 0.454509 0.462221 0.469906 0.477617 0.485329 0.49304
0.500752 0.508431 0.516142 0.523852 0.531563 0.539273 0.546947 0.554655 0.562364 0.570073
0.577782 0 0.00127753 0.00255577 0.00383512 0.00511576 0.00639768 0.00829925 0.0102028 0.0121091
0.0140203 0.0159396 0.0169038 0.0178698 0.0188378 0.0198081 0.0207805 0.0217543 0.0227331 0.0237171
0.0247057 0.0256982 0.0266889 0.027686 0.0286914 0.029692 0.0307005 0.0307757 0.030851 0.0309263
0.0310014 0.0310708 0.031993 0.0328958 0.0337781 0.0346392 0.0354978 0.0359458 0.0363914 0.0368351
0.0372776 0.0377148 0.0381534 0.0385895 0.0390248 0.0394594 0.0398881 0.0403212 0.0407545 0.041188
0.0416219 0.0420564 0.0424926 0.0429277 0.0433637 0.0438006 0.0442394 0.0451176 0.0460042 0.0468974
0.0477982 0.0487238 0.049671 0.0506105 0.0515434 0.0524831 0.0534323 0.0541661 0.0549054 0.0556469
0.0563902 0.0575336 0.0576843 0.0578352 0.0579861 0.0581371 0.0582882 0.0592722 0.0602556 0.0612395
0.0622231 0.0632054 0.065206 0.0671933 0.0691699 0.0711561 0.07314 0.0750988 0.0770841 0.0790841
0.081088 0.0830937 0.0871064 0.0911365 0.0951348 0.0990876 0.103035 0.105933 0.108836 0.111747
0.114651 0.118078 0.122997 0.12789 0.132755 0.137594 0.142407 0.150117 0.157829 0.16554
0.173247 0.180952 0.188646 0.196347 0.204046 0.211744 0.21944 0.227127 0.23482 0.242513
0.250204 0.257894 0.265576 0.273264 0.280951 0.288637 0.296322 0.304001 0.311684 0.319366
0.327047 0.334727 0.342403 0.350081 0.357759 0.365436 0.373112 0.380784 0.388459 0.396133
0.403806 0.411478 0.419147 0.426818 0.434488 0.442157 0.449826 0.457492 0.465159 0.472825
0.480491 0.488157 0.49582 0.503484 0.511147 0.518809 0.526471 0.534131 0.541791 0.549451
0.55711 0.564769 0 0.00127409 0.0025488 0.00382396 0.00510035 0.00637797 0.00827387 0.0101719
0.0120722 0.0139756 0.015883 0.0177923 0.0197069 0.0216263 0.0235504 0.0254825 0.0264534 0.0274212
0.0283842 0.0293422 0.0299605 0.0309787 0.0319893 0.0329894 0.0339793 0.0349576 0.0358665 0.0367722
0.0376737 0.0385723 0.0394619 0.0403526 0.0412417 0.0421298 0.0430169 0.0439032 0.0456804 0.0474749
0.049284 0.0511027 0.0529379 0.0538076 0.0546786 0.0555518 0.0564271 0.0577891 0.0586713 0.0595551
0.0604408 0.0613283 0.0622171 0.0640928 0.0659713 0.0678525 0.0697365 0.0716224 0.0735179 0.0754057
0.0772944 0.0791845 0.0810757 0.0848719 0.0886671 0.0924669 0.0962712 0.100089 0.107788 0.11549
0.123147 0.130766 0.138401 0.14605 0.153696 0.161341 0.168984 0.176626 0.184272 0.191914
0.199555 0.207195 0.214833 0.222474 0.230112 0.23775 0.245386 0.253021 0.260659 0.268294
0.275929 0.283563 0.291195 0.298831 0.306464 0.314097 0.321728 0.329359 0.336992 0.344623
0.352253 0.359882 0.367511 0.375142 0.382771 0.390399 0.398026 0.405653 0.413282 0.420908
0.428534 0.43616 0.443784 0.451411 0.459036 0.46666 0.474283 0.481906 0.489531 0.497154
0.504776 0.512397 0.520018 0.52764 0.535261 0.542881 0.550501 0.55812 0 0.00127142
0.00254321 0.00381554 0.00508846 0.00636199 0.0101414 0.0139323 0.0177224 0.0215092 0.0252998 0.0257903
0.0262797 0.0267682 0.0272557 0.0276849 0.0290748 0.0304595 0.031839 0.0332134 0.0345852 0.0364264
0.038258 0.0400728 0.0418835 0.0436892 0.0455004 0.047309 0.049119 0.0509377 0.0527677 0.0546039
0.0564416 0.058282 0.0601254 0.0619713 0.0656734 0.0693894 0.0731214 0.0768684 0.0806191 0.0843896
0.0881582 0.091927 0.0956979 0.0994712 0.107001 0.11453 0.122063 0.129611 0.137174 0.144753
0.152328 0.159906 0.167483 0.175059 0.18264 0.190217 0.197795 0.205372 0.212948 0.220527