# vtk DataFile Version 2.0
sampleSurface
ASCII
DATASET POLYDATA
POINTS 2021 float
-0.500032 0 0.11501 -0.499951 3.38813e-21 0.0392727 -0.789037 8.47033e-21 0.120673 -0.500013 -1.35525e-20
0.193965 1.00003 0 0.0485099 1.00003 0 0.0478584 0.475202 0 0.0353615
0.250044 1.41878e-20 0.0305359 0.2506 -5.42101e-20 0.117067 0.251301 0 0.203885 0.364989
0 0.203772 1.75002 0 0.113255 1.75002 0 0.0564279 2.50001 6.89146e-18
0.059229 2.21354 0 0.250758 2.50001 0 0.252875 3.25001 -3.47927e-17 0.0598775
3.25001 -1.69407e-21 0.253888 4.00001 5.60566e-18 0.0599857 4 0 0.253986 4.75
-1.79088e-17 0.0599988 4.75 8.47033e-22 0.253998 5.5 -2.79246e-17 0.0599999 5.5 -4.23516e-22
0.253999 6.25 1.01187e-17 0.06 6.25 0 0.254 7 2.93732e-17 0.06
7 0 0.254 7.75 -2.65294e-17 0.06 7.75 0 0.254 8.5
1.8923e-17 0.06 8.5 0 0.254 9.25 -2.88552e-17 0.06 9.25 -5.29396e-23
0.254 10 -2.64698e-23 0.254 10 0 0.06 -4.24997 0 0.0599042
-5 0 0.0599861 -5 0 0.253986 -4.24997 0 0.253912 -3.49995
0 0.0593815 -3.49994 0 0.253441 -2.74993 0 0.0570188 -2.74991 0
0.251316 -1.99991 0 0.0492276 -1.99987 0 0.242776 -1.24992 -1.69407e-21 0.03
-1.24985 1.23328e-17 0.222327 -1.24989 3.38813e-21 0.125756 -0.874924 2.08116e-17 0.03 -0.874929
0 0.122356 -0.124951 -8.47033e-22 0.03 -0.499941 0 0.03 -0.124922 -8.47033e-22
0.0385291 1.00021 0 0.231242 0.625368 0 0.203537 0.25004 -2.11758e-22 0.03
1.75003 0 0.247334 1.92873 1.69407e-21 0.441438 2.50001 0 0.447397 3.25
-1.69407e-21 0.447898 4 0 0.447986 4.75 0 0.447997 5.5 -4.23516e-22
0.447999 6.25 4.23516e-22 0.447999 7 0 0.448 7.75 -1.05879e-22 0.448
8.5 0 0.448 9.25 0 0.448 10 -2.64698e-23 0.448 -5
-8.47033e-22 0.447985 -4.24997 0 0.447919 -3.49993 0 0.4475 -2.74988 0
0.445609 -1.9998 6.77626e-21 0.437758 -1.24969 1.61411e-17 0.417681 -1.24976 -6.77626e-21 0.31973
-0.875161 7.70461e-18 0.216228 -0.875403 0 0.312476 -0.499924 -8.74138e-19 0.250039 -0.312433
0 0.250037 -0.312436 0 0.200025 -0.499924 0 0.200026 0.250062 3.38813e-21
0.24921 0.250039 -1.69407e-21 0.250046 0.250032 0 0.300069 0.437526 3.05948e-18 0.300066
0.625026 0 0.30005 1.00072 -8.23994e-18 0.326497 1.00196 0 0.423 1.75013
0 0.439575 1.75013 1.77877e-20 0.448245 1.00135 0 0.537141 1.00002 0
0.61834 1.74999 2.71051e-20 0.633055 2.49999 -3.38813e-21 0.641448 3.25 0 0.641907
4 -1.69407e-21 0.641985 4.75 -8.47033e-22 0.641996 5.5 -4.23516e-22 0.641998 6.25
0 0.641999 7 0 0.641999 7.75 0 0.642 8.5 5.29396e-23
0.642 9.25 -5.29396e-23 0.642 10 0 0.642 -5 0 0.641985
-4.24997 -1.69407e-21 0.641926 -3.49993 0 0.641557 -2.74988 0 0.639897 -1.99989
6.77626e-21 0.63382 -1.25099 2.55465e-18 0.614606 -1.25 -2.71051e-20 0.515981 -0.878244 0
0.50789 -0.875961 2.71051e-20 0.459694 -0.875609 0 0.410432 -0.498432 0 0.400603
-0.498071 -1.70762e-18 0.413126 -0.450805 0 0.413349 -0.45095 0 0.400955 0.250009
1.89735e-19 0.412703 0.25 2.71051e-20 0.425212 0.296872 1.00289e-18 0.425187 0.343754 -2.71051e-20
0.425153 0.343763 0 0.400146 0.250006 0 0.400175 1.00162 1.41488e-17 0.520353
-2 4.23516e-22 0.820145 -2.09502 -2.11758e-22 0.830091 -2 0 0.829497 -1.25123
0 0.813251 -1.25126 0 0.713737 -1.25101 6.77626e-21 0.62198 1.00059 0
0.714169 1.00094 0 0.809205 1.75018 0 0.82775 2.5 0 0.835521
3.25 0 0.835917 4 -1.69407e-21 0.835986 4.75 -8.47033e-22 0.835996 5.5
0 0.835998 6.25 0 0.835999 7 0 0.835999 7.75 0
0.836 8.5 0 0.836 9.25 0 0.836 10 0 0.836
-5 -8.47033e-22 0.835986 -4.24997 0 0.835935 -3.49995 0 0.835616 -2.74991
0 0.83419 -0.970118 0 0.703382 -0.87455 0 0.699864 -0.874264 -2.71051e-20
0.649852 -0.874033 -2.71051e-20 0.599873 -0.49698 0 0.599585 -0.497345 -9.21572e-19 0.612046
-0.450014 0 0.611892 -0.44938 2.71051e-20 0.599454 -2.00002 0 0.84097 -1.84639
-3.38813e-21 1.02215 -1.25185 0 1.01276 -0.896512 -3.38813e-21 0.900668 -0.908183 6.77626e-21
0.801076 -0.904022 -1.86347e-20 1.00093 0.624925 0 0.799916 0.249931 0 0.799891
0.249978 0 0.899916 0.249997 0 0.999939 0.999987 0 0.999957 1.75061
-2.1684e-19 1.02409 2.50003 0 1.0296 3.25 -1.69407e-21 1.02993 4 0
1.02999 4.75 0 1.03 5.5 0 1.03 6.25 2.11758e-22 1.03
7 0 1.03 7.75 0 1.03 8.5 5.29396e-23 1.03 9.25
0 1.03 10 0 1.03 -5 0 1.02999 -4.24998 0
1.02994 -3.49996 -8.47033e-22 1.02968 -2.74996 0 1.02849 -2.00026 0 1.02458
-0.87482 0 0.799893 -0.87491 0 0.899919 -0.49993 0 0.799862 -0.499958
7.6233e-19 0.849889 -0.312476 0 0.849885 -0.312472 0 0.799853 -1.25001 8.04681e-21
1.19601 -0.499979 5.29396e-23 1.10737 -0.731886 2.11758e-22 1.19997 -0.499981 0 1.19997
-0.124987 0 0.999933 -0.477759 -5.29396e-23 0.999933 -0.487556 -1.45584e-22 1.09995 0.250008
0 1.19997 1 0 1.19997 1.7507 0 1.22203 2.50003 -1.35525e-20
1.22368 3.25 0 1.22394 4 0 1.22399 4.75 4.23516e-22 1.224
5.5 0 1.224 6.25 2.11758e-22 1.224 7 0 1.224 7.75
1.05879e-22 1.224 8.5 0 1.224 9.25 0 1.224 10 2.64698e-23
1.224 -5 4.23516e-22 1.22399 -4.24999 -4.23516e-22 1.22395 -3.49998 0 1.22374
-2.75001 0 1.22279 -2.00077 0 1.21965 -1.24997 4.23516e-22 1.19997 -0.499969
-5.29396e-23 0.999933 -0.874942 0 0.999936 -0.499979 -1.32349e-23 1.09995 -2.75001 0
1.36967 -3.18711 4.23516e-22 1.41751 -2.75001 4.23516e-22 1.4171 -2.00072 3.38813e-21 1.29692
-2.00065 0 1.41474 -1.25823 6.35275e-21 1.40014 -0.980416 0 1.39998 -0.499986
0 1.39998 0.250009 0 1.39998 1 0 1.39998 1.75054 0
1.41682 2.50002 -1.35525e-20 1.41776 3.25 0 1.41796 4 4.23516e-22 1.41799
4.75 0 1.418 5.5 0 1.418 6.25 0 1.418 7
0 1.418 7.75 0 1.418 8.5 0 1.418 9.25 0
1.418 10 0 1.418 -5 0 1.41799 -4.24999 0 1.41797
-3.49999 -4.23516e-22 1.41781 -1.24998 0 1.39998 -2.80392 1.32349e-23 1.61143 -2.75
-1.32349e-23 1.6114 -2.0003 0 1.60983 -1.25396 2.64698e-23 1.60004 -1.12789 2.64698e-23
1.59999 -0.49999 1.05879e-22 1.59999 0.250008 0 1.59999 1.00001 4.23516e-22 1.59999
1.75038 0 1.61122 2.50002 0 1.61184 3.25 -4.23516e-22 1.61197 4
-4.23516e-22 1.61199 4.75 0 1.612 5.5 0 1.612 6.25 0
1.612 7 0 1.612 7.75 5.29396e-23 1.612 8.5 2.64698e-23 1.612
9.25 -1.32349e-23 1.612 10 -1.32349e-23 1.612 -5 0 1.61199 -4.24999
0 1.61198 -3.49999 0 1.61187 -1.24999 0 1.59999 -2.75 -1.32349e-23
1.63714 -2.64195 -2.11758e-22 1.80559 -2.00012 -8.47033e-22 1.80492 -1.25741 0 1.80004
-1.19082 -7.94093e-23 1.8 -0.499992 1.05879e-22 1.79999 0.250006 2.11758e-22 1.79999 1
0 1.8 1.75023 0 1.80561 2.50001 3.38813e-21 1.80592 3.25 0
1.80599 4 0 1.806 4.75 2.11758e-22 1.806 5.5 0 1.806
6.25 0 1.806 7 0 1.806 7.75 0 1.806 8.5
2.64698e-23 1.806 9.25 0 1.806 10 0 1.806 -5 0
1.806 -4.25 -2.11758e-22 1.80599 -3.49999 0 1.80594 -2.75 -1.05879e-22 1.8057
-1.24999 0 1.8 -2 -4.76456e-22 1.98532 -1.20969 -1.65436e-23 2 -0.499993
0 2 0.250006 0 2 1 0 2 1.75 0
2 2.5 0 2 3.25 0 2 4 0 2
4.75 -1.05879e-22 2 5.5 0 2 6.25 0 2 7
5.29396e-23 2 7.75 0 2 8.5 0 2 9.25 0
2 10 -1.32349e-23 2 -5 2.21817e-18 2 -4.25 1.05879e-22 2
-3.49999 0 2 -2.74999 0 2 -1.99999 -5.29396e-23 2 -1.24999
3.30872e-24 2 0.0956945 -5.42101e-20 0.203879 0.0632748 0 0.203876 0.0625511 0
0.250042 -0.403589 6.77626e-21 0.40138 -0.405779 7.7927e-19 0.38799 -0.406379 -6.77626e-21 0.375196
-0.499567 -1.35525e-20 0.375265 0.250006 -6.50521e-19 0.375144 0.156247 0 0.375155 0.156237
9.41901e-19 0.400212 0.203129 0 0.400201 0.249796 0 0.59991 0.249852 -1.0842e-19
0.587433 0.202953 0 0.587417 0.202888 6.50521e-19 0.599901 0.625121 -6.77626e-21 0.499953
0.717439 6.77626e-21 0.504955 0.625095 6.77626e-21 0.475379 0.343596 1.0842e-19 0.599918 0.343639
0 0.574939 0.296781 0 0.574964 0.249926 0 0.574977 0.62499 -4.2826e-18
0.549927 0.624917 4.55365e-18 0.599925 0.203133 0 0.412725 -0.449046 0 0.587135
-0.496581 5.42101e-20 0.587161 0.625036 -9.32414e-18 0.40006 0.625067 1.13164e-18 0.450032 0.249704
0 0.624881 0.155871 0 0.599866 0.155839 1.95156e-18 0.624853 0.249886 1.35525e-20
0.749873 0.062411 0 0.749846 0.0624478 -4.26227e-18 0.799869 -0.312472 0 0.749804
-0.499901 -3.38813e-21 0.749824 -0.691227 0 0.30453 -0.499912 3.02221e-18 0.300065 -0.875784
-3.11708e-18 0.361353 -0.592465 -2.71051e-20 0.40036 -0.499854 0 0.350135 -0.687111 1.35525e-20
0.350117 -0.68656 -2.71051e-20 0.40021 0.437526 -1.35525e-20 0.400108 0.437522 6.77626e-21 0.350086
0.250015 -2.51399e-18 0.35011 0.625027 3.38813e-21 0.350064 -0.592287 0 0.425286 -0.498048
0 0.425444 -0.873902 5.42101e-18 0.54992 -0.496663 0 0.574746 -0.591532 0
0.574798 -0.591729 0 0.599734 -0.149108 0 0.406489 -0.149477 -5.29396e-23 0.403592
-0.149678 0 0.406489 -0.451876 -2.1684e-18 0.499977 -0.451579 0 0.487563 -0.498366
0 0.487552 -0.498515 -1.0842e-19 0.499993 0.437553 0 0.450075 0.437532 -6.07153e-18
0.425113 0.254621 -1.25361e-19 0.496697 0.26485 -5.42101e-20 0.498023 0.264831 0 0.496529
0.254636 -2.30393e-19 0.49668 0.570241 0 0.499932 0.437665 -2.71051e-20 0.474991 0.437859
-2.71051e-20 0.49988 0.437372 -1.0842e-19 0.599915 0.249722 3.25261e-19 0.649874 0.43732 -5.42101e-20
0.649899 0.624872 0 0.649914 0.624883 -3.95734e-18 0.699913 0.43734 6.83047e-18 0.699894
0.249817 0 0.699869 -0.592227 0 0.624743 -0.498071 -2.71051e-20 0.624658 -0.499769
6.77626e-21 0.69979 -0.687025 0 0.699824 -0.150854 -1.03677e-18 0.599678 -0.151059 -6.77626e-21
0.605522 -0.127339 6.77626e-21 0.605681 -0.127867 0 0.599582 -0.406139 -4.40457e-20 0.699754
-0.406113 0 0.674749 -0.499634 0 0.674774 -0.18433 -4.23516e-22 0.674527 -0.163626
-4.23516e-22 0.678958 -0.165125 0 0.674537 -0.171868 4.23516e-22 0.674524 -0.14924 3.34737e-19
0.400169 -0.125737 0 0.400165 -0.12551 0 0.393854 -0.149076 -2.11758e-22 0.393877
-0.499925 -2.61564e-18 0.325088 -0.406241 0 0.325087 -0.4062 0 0.300069 -0.124901
0 0.300062 -0.218633 -3.27294e-18 0.299673 -0.218596 1.35525e-20 0.324664 -0.124851 0
0.325085 -0.126061 7.86047e-19 0.406473 -0.0785222 1.30782e-18 0.400166 -0.126118 3.38813e-21 0.41275
-0.0785648 0 0.412729 0.240678 1.0842e-18 0.500153 0.252614 -2.1684e-19 0.498317 0.252386
1.0842e-19 0.496231 0.241035 0 0.496114 0.228892 -1.35525e-20 0.496204 0.228835 6.77626e-21
0.498715 0.229819 2.71051e-20 0.500074 0.25248 0 0.499935 0.240657 -1.6263e-19 0.500957
0.264863 0 0.500154 0.264689 0 0.500951 0.437443 0 0.549896 0.437406
[...]
POINT_DATA 2021
FIELD attributes 2
p 1 2021 float
2.01365 1.44161 2.37262 4.36761 0.0588484 0.0567337 -4.20539 -6.04415 -7.69323 -6.16831 -4.32313
0.496296 0.464146 0.111733 0.326606 0.174852 0.00339666 0.0271776 0.0054965 0.014395 0.00957756
0.0155399 0.00478296 0.00988611 0.000143209 0.00447469 -0.0014032 0.00229277 -0.00104086 0.00214211 -0.000422503
0.00217175 0.00059421 0.00336926 0 0 0.615152 0.610696 0.610545 0.614867 0.636042
0.635147 0.706029 0.702895 0.928181 0.924882 1.6428 1.76432 1.77975 2.23842 2.47912
-4.05523 1.37152 -4.10802 0.65105 -0.11087 -6.03393 0.572127 0.44235 0.189616 0.0291266
0.00721023 0.00935342 0.00551678 0.000971304 -0.000657005 -0.000276005 -0.000380311 0.00268724 0 0.610112
0.614097 0.632733 0.693858 0.903746 1.95812 2.031 3.13085 3.87538 7.33007 -3.29085
-1.04612 4.58768 -5.7349 -5.72708 -2.26804 0.338636 0.827006 1.03088 0.926109 0.521353
0.517154 0.847988 0.88134 0.42751 0.167095 0.0228316 0.00214219 0.00635802 0.00423471 0.000332928
-0.00102621 -0.00044762 -0.000268822 0.00286036 0 0.609422 0.612907 0.629095 0.681165 0.863268
1.85177 2.13778 5.13676 5.59112 4.82854 32.581 36.4661 52.0367 45.9926 4.75998
4.91042 3.39567 3.4266 2.68763 4.08721 0.84109 0.809188 0.78871 0.806473 1.39789
1.78703 1.84698 0.992845 0.48273 0.349755 0.127568 0.0134527 0.000373133 0.00686357 0.0060865
0.00253316 0.00113208 0.00147868 0.00207744 0.00350776 0 0.608546 0.611426 0.624661 0.66628
3.25356 3.75209 4.68443 4.76254 34.3626 32.7008 44.6254 50.7667 0.80264 0.782329
0.940851 1.7035 2.62835 1.14303 0.0809127 -4.88001 -5.302 -2.74894 -0.228327 0.191121
0.0732699 -0.00555416 -0.0109387 -0.000972158 0.000868858 -0.00119772 -0.0017258 -0.000810867 0.000322569 0.00129635
0 0.607577 0.609804 0.619832 0.650293 0.741281 2.74792 1.73326 5.18914 3.29314
0.557104 -0.67666 0.698819 0.311598 0.313557 0.143449 -1.70989 0.673837 0.282064 -0.974306
-0.393802 0.098007 0.0647893 -0.00296026 -0.0109372 -0.00107465 0.00144328 -0.000370966 -0.000889114 -8.53774e-06
0.00106744 0.00157516 0 0.606612 0.608193 0.614983 0.634161 0.677777 0.693581 0.823919
1.15993 0.325075 0.622929 0.614207 0.619302 0.657514 0.62661 0.567555 0.384752 0.0601224
-0.564356 -0.377647 0.0462547 0.0592991 -0.00438466 -0.0151744 -0.0044144 -0.000777712 -0.00209834 -0.00236934
-0.00132197 -0.000128027 0.00045243 0 0.605748 0.606738 0.61056 0.566899 0.607525 0.607565
0.591521 0.496395 0.427823 0.0777972 -0.435283 -0.348786 -0.000940955 0.0480581 -0.00794 -0.0188201
-0.00649306 -0.00176539 -0.00268829 -0.0027783 -0.00163357 -0.000375444 0.000273769 0 0.60507 0.605565
0.607015 0.495889 0.606586 0.595999 0.571197 0.458737 0.428384 0.087142 -0.364998 -0.33286
-0.0274628 0.0429687 -0.00833947 -0.0198991 -0.007241 -0.0021776 -0.00300563 -0.00303286 -0.00184184 -0.000557807
0.000136741 0 0.604632 0.604783 0.604673 0.600174 0.457613 0.564925 0.426234 0.0902398
-0.342619 -0.327711 -0.0357567 0.0414379 -0.0084347 -0.0203153 -0.00759853 -0.00240612 -0.00316515 -0.00313062
-0.00189698 -0.000593384 0.000122242 8.01685e-05 0.604478 0.604501 0.60383 0.597655 0.564415 0.445314
-10.2884 -11.1463 -11.7982 70.4883 60.0726 43.8879 29.68 2.92582 1.69145 4.40091
5.06128 4.16547 4.58186 6.22146 5.43586 2.02135 1.73182 2.13644 2.97475 3.68426
3.38293 3.99474 2.24273 1.91093 6.04668 56.2556 39.4501 1.93133 2.25482 3.6659
4.7829 2.19532 -4.52614 -11.2056 -9.84531 -3.19317 8.46479 7.00799 11.91 4.75219
17.469 20.8266 9.14088 10.5211 2.57697 1.49757 0.992482 1.65394 19.7359 36.9229
5.61484 39.6503 20.3336 18.8236 -58.8067 -58.5853 -58.804 68.4716 68.3847 47.5704
44.8043 3.39714 3.10247 -5.00318 0.35049 0.199209 -5.05273 2.5826 3.96628 3.93276
2.86302 1.84814 1.76143 1.62489 0.94904 0.761814 -1.35423 17.0091 28.1094 13.2973
7.27897 -56.5991 -56.3845 -58.8279 -58.7488 13.8769 19.1138 18.4864 -46.3201 -42.7599
-44.4398 -45.1775 -58.327 -57.5771 -57.5717 -57.7349 16.6188 15.895 12.0138 -29.3769
-27.9677 -45.3713 -37.0872 -58.9182 -46.0206 -58.7456 -48.1587 10.9914 4.29372 10.5003
11.8426 9.09296 9.36873 9.65683 4.5162 11.1147 0.908411 0.73921 3.72202 3.479
4.0582 4.31799 47.7629 68.3536 -58.8863 -56.5322 6.50144 11.1228 -51.4129 -52.7028
-58.4772 4.47263 6.29418 6.45914 6.48832 -31.4435 -40.0536 -49.478 -29.8139 64.4186
60.8034 41.6655 41.4144 -44.0759 -56.0819 -11.5361 -8.60655 -0.453392 -24.5598 -42.4818
42.9904 44.3167 64.3145 66.4863 -51.7758 -49.9263 -50.7004 0.342803 -9.65141 -12.7046
-11.6885 -21.6752 -24.8634 -57.8775 44.049 21.8581 22.1518 11.7064 12.0234 12.1964
13.1477 22.0285 44.5125 10.8005 12.4639 11.9044 13.2447 -58.7115 -58.7014 -58.1796
-58.1669 -57.5196 -56.8977 -56.5365 45.8287 66.8409 -58.3699 -58.625 -59.0229 -58.2778
-29.8574 -35.0854 -32.8082 -13.7734 -1.61619 -4.93546 -50.6456 -50.3037 -58.061 -13.1785
0.106365 0.0303714 -13.4056 -58.3283 -56.8447 -51.3297 -12.5251 -10.256 -3.74432 1.52764
-7.31593 -5.52845 -18.5508 -38.2876 -41.3991 -36.305 -52.1835 -53.2099 -52.9361 -4.04622
-17.449 -18.1914 -4.65842 -56.0667 -51.945 -56.0872 -3.49568 -9.20693 -16.5088 -11.6838
67.5392 46.8764 -54.2707 -54.4411 -56.8297 -56.7032 -56.2232 -53.7467 -57.1201 -53.1254
-55.9802 -58.9977 -59.1283 -59.1701 -32.1546 -77.1145 -96.1593 -101.118 -103.372 -102.933
-48.6518 -50.2241 -54.2564 -48.2788 -49.9237 -98.0938 -99.4044 -71.2742 -34.2999 -58.5025
-59.3187 -59.0041 -56.2934 -57.1897 -57.2851 -57.2075 -57.6044 7.10935 6.02179 8.91778
-56.0514 -55.742 -55.9645 -55.4467 -55.5675 -55.8699 -56.2825 -55.156 -55.1402 2.04527
1.83839 0.717095 1.21848 4.26126 4.62448 1.39047 -55.8756 -56.3294 -56.9813 5.80219
6.63508 2.79003 0.89259 3.14787 -32.118 -38.1319 -37.3839 -31.7256 -54.6226 -55.1124
-58.0052 -57.6808 -54.9919 -55.8199 -38.9306 -43.288 -43.0858 -36.9367 -46.1191 -50.1691
-53.3092 -53.458 -52.291 123.584 131.442 146.786 146.875 -58.1736 -56.2352 -56.5061
-57.8621 -57.714 4.40922 2.12862 3.02296 4.61706 -9.70919 -3.89178 -5.84507 -8.88305
-11.767 -39.0713 -36.8679 -25.5686 -27.3048 -32.1221 -39.091 -24.9133 -24.9373 31.0994
41.2773 52.121 37.931 23.0754 19.2428 34.2358 26.1344 0.669828 0.828073 1.9878
34.0805 24.9098 17.0902 22.1513 2.89765 3.83682 4.48585 4.5967 3.755 6.70258
6.81635 4.65691 -9.36279 -8.24953 -1.37946 -10.2418 14.6898 9.14955 10.8251 -54.693
-56.9204 -57.0512 -54.8874 -82.7433 -81.4618 -84.7034 -47.9587 -12.6984 -18.3461 -27.6128
-56.0439 -52.858 -55.4065 -56.4978 -74.0663 -73.8101 -58.4498 -59.7044 -49.5941 -47.9308
-50.2054 -50.3579 3.76136 3.8202 -0.606257 5.9968 5.65376 4.67117 5.34112 5.72882
6.13933 -54.145 -53.7073 -68.8469 -68.0585 79.0132 94.1083 85.7056 112.117 106.426
88.8489 90.1645 161.856 164.186 153.366 121.639 98.4191 104.358 97.3145 117.652
-12.9219 -26.9875 -31.3107 -5.88251 -26.166 -52.1041 -41.7452 -6.35598 93.721 101.22
86.8051 78.2729 96.7023 88.3975 107.606 148.462 158.216 167.406 165.144 106.63
102.906 159.632 -32.6027 -7.95058 -38.2816 -28.5075 -47.6995 140.214 140.084 115.608
110.588 110.251 115.514 139.608 138.992 108.141 167.236 170.841 172.012 172.303
173.714 186.651 186.839 174.82 173.272 -33.052 -40.1645 -33.0064 -56.4608 -50.8609
-42.711 -41.9539 -40.6914 -25.6308 2.74014 -2.63663 -0.692976 173.392 175.336 187.191
172.363 186.507 187.151 175.223 172.169 179.597 181.761 170.111 168.879 179.894
167.879 171.096 182.419 -52.5833 -37.7663 -36.522 -55.7365 -55.7642 -55.8828 -36.334
-46.1935 -36.4451 -36.9251 -45.8158 -45.7821 -3.33643 -9.19504 -25.0628 -25.1159 -32.9842
-43.6085 -33.0022 -32.6875 -43.0184 -21.2603 -18.9691 -20.6981 115.425 140.143 138.127
139.037 114.682 109.31 170.036 169.91 170.478 167.742 136.4 108.399 113.577
137.151 -57.2003 -54.2902 -52.8816 -52.7093 -55.7179 -46.1305 90.1352 93.3923 78.6187
-14.9557 -6.23555 -6.77368 -20.8855 54.5134 56.3743 69.9819 73.6401 -55.9282 -55.1601
-55.4556 -55.9179 -57.0836 -57.32 -57.4584 -57.5733 -56.2051 -56.3105 -55.9129 -56.0036
-134.966 -109.374 -77.8333 -95.7103 -98.0706 -99.2159 -99.2075 -83.3307 -78.9764 -92.5545
-70.563 -85.6008 -133.082 -136.582 -128.461 -96.1847 -97.0058 -54.8584 -54.3224 -55.0255
-56.1105 -56.3959 -53.9481 -53.8778 6.75814 7.2857 13.7156 16.3292 13.8086 -50.9566
-50.2285 -45.7785 -46.0098 -46.1637 -45.9612 -45.9343 -45.7164 12.9364 12.6684 16.8676
8.30102 8.10895 9.6641 10.1433 10.1685 8.53075 7.35178 8.11303 12.4188 15.7258
13.7409 0.824854 -0.807512 -2.99613 7.06469 6.24028 5.11969 6.45897 7.17255 -52.4766
-53.3684 -56.3469 -55.6541 -48.6305 -49.6161 13.6048 15.563 16.9553 -46.8273 -49.7375
-49.8708 -46.543 -45.6982 11.3603 11.1031 11.1458 9.56424 6.86469 -6.98276 -5.74728
5.48474 6.32682 6.29036 -48.5065 -48.8527 146.492 148.516 140.931 136.972 113.348
118.31 125.72 121.193 184.611 185.886 182.187 178.43 -55.7597 -55.6904 -53.0862
-52.9969 169.64 183.36 185.059 172.997 174.454 186.573 171.031 182.145 169.627
179.279 -16.8616 -19.1562 -23.9078 -28.188 -26.7803 -22.908 -8.79736 -3.46409 -3.89628
-9.09208 -14.1246 -13.7691 -1.03044 -9.06572 -9.93546 -15.016 -18.1537 -8.20474 -8.9621
-24.9636 -20.2255 -9.66269 -0.783133 -3.05426 6.04805 -3.50717 6.03063 6.79512 3.38573
3.91428 4.63395 4.19582 7.70888 6.08125 3.94998 5.80708 -18.922 -16.0054 -26.3471
-21.4783 -56.4774 -58.213 -58.8141 -58.6758 3.03289 3.10065 5.02912 5.511 4.2761
4.87267 -14.5409 -40.2807 -57.2482 -65.4693 -53.2349 -31.8739 -58.9918 10.7111 10.1701
10.1933 -2.38778 0.243747 11.9858 17.2438 9.52792 23.6236 20.5247 10.4147 1.70374
6.82523 8.31831 13.123 11.5592 6.81043 -53.429 -44.0708 -49.9561 -13.0949 -43.9467
-24.9954 -60.6753 -83.7958 108.681 92.7171 106.204 108.361 112.748 111.878 172.887
172.011 173.262 172.578 171.28 185.967 185.968 185.203 -58.0278 -58.2459 174.486
-56.2352 -56.2334 -57.1638 -57.3308 -57.032 -55.9366 -150.28 -137.157 -137.027 -133.822
-157.94 -136.918 -132.63 -132.947 -119.682 -115.048 -80.4071 -73.1728 -73.5042 -70.893
-119.392 -121.119 -56.8141 -55.7999 -54.7014 -57.1815 9.46135 7.11444 10.6738 8.2215
10.9892 12.0141 12.3853 13.355 14.1414 -55.2774 -54.341 -56.3498 -55.1638 -53.2048
-52.9394 -53.0545 -54.9899 -5.95217 -0.457564 -1.40341 -4.58064 9.20673 9.57788 6.82586
5.86833 7.57948 9.56346 8.80668 6.72787 1.35742 8.1978 7.10127 6.93328 8.67102
10.3977 9.21738 12.0323 11.3221 -54.7216 -55.1477 -55.2762 -55.4032 -55.554 -55.4031
-54.8993 -52.914 -54.23 -54.2385 -54.2528 -51.1814 -52.5755 -73.8881 -73.1013 -57.7225
-60.026 -77.7016 -68.5424 -77.5979 -124.076 -128.676 -136.299 -79.6375 -97.6812 -107.514
-80.502 -99.0278 128.761 113.596 148.528 151.753 -54.6739 -53.9022 -55.0115 -54.9943
-53.2023 143.894 167.878 146.153 -49.0721 -48.2278 -48.6767 -49.4581 -49.2759 -49.2934
-49.2198 -47.696 -8.04266 -9.33316 -11.8784 -10.9883 -14.8324 -17.0196 -19.167 -16.9469
-17.8783 74.8134 85.5094 -58.5556 51.2203 76.5311 65.0026 75.5362 60.9973 13.7292
10.7277 45.5159 36.527 8.37755 9.20985 3.65354 5.32019 5.13038 7.82986 6.74081
7.10637 7.49114 8.30416 -52.872 -52.4301 -52.143 -52.7288 -1.01054 -0.501832 -1.07678
2.27752 5.71101 5.15373 7.10036 6.53556 -51.0593 -51.4787 -51.2048 138.206 136.284
171.193 184.784 189.089 189.376 186.866 185.343 -55.8055 -55.5115 -55.8352 -55.6639
-53.2218 -45.6419 -46.4683 -47.0929 -46.2981 -46.6311 -47.9283 -56.1231 -56.148 -56.7378
-57.3485 -57.0559 -57.04 -57.2025 -56.8165 -55.1839 -115.879 -111.516 -135.24 -111.912
-134.135 -122.326 -123.814 -133.607 -56.2253 -57.5029 -55.9236 -54.6696 13.6664 12.2998
11.271 12.4433 12.6962 13.3441 -36.8351 -36.3269 -31.5408 -30.9909 -41.8118 -42.3512
-46.5108 -46.1163 -51.1399 -51.1887 -45.6042 -52.2137 -51.8529 -6.14844 -0.918403 -11.4087
0.688975 2.12423 8.02714 7.56174 7.88696 4.30959 10.7011 7.36927 8.78031 10.2659
10.9077 10.8 10.941 12.7014 12.3748 2.39573 12.4386 14.8242 15.9931 3.91513
3.42453 3.16287 3.84232 -58.9879 -58.131 -52.9473 -56.5637 -44.698 -44.1618 -40.1199
-44.4892 -45.9057 -49.963 -51.1741 -49.606 -49.8284 -49.5875 -47.15 -52.2366 -47.2596
4.22934 -48.2977 -49.5912 141.008 131.815 129.414 129.461 129.841 114.357 106.932
188.665 188.139 187.144 -50.7677 -51.0971 -1.39693 -0.828696 0.209171 -29.6956 -30.6034
186.058 186.894 180.371 183.33 181.876 181.505 -33.2177 -29.0495 -3.1625 -7.82051
-5.93582 -3.20818 -24.8211 -13.6939 -10.2648 -13.4714 -19.9007 -4.58102 80.8761 56.524
60.8527 21.0728 21.4385 68.021 110.711 10.1252 7.18155 -2.20681 -2.46383 6.82443
7.61932 7.91145 6.10306 6.55463 24.5358 16.2971 -0.423773 19.7572 -1.75048 3.49154
8.16718 8.09222 68.0248 110.213 -54.8188 -55.9064 18.116 91.4879 108.998 100.385
92.4293 108.049 109.163 126.578 134.316 143.192 -55.8728 81.504 73.4714 50.2807
12.5462 18.5997 16.7714 -75.516 -56.8972 -56.8906 -56.8938 -55.3289 -55.2563 -59.9755
-55.5035 -59.9437 -60.5293 23.3098 -6.45379 5.95687 10.5471 10.7817 -1.37506 -1.48013
-2.58742 -55.6852 -54.2383 -1.00068 2.55576 2.86245 -57.5615 -57.0018 -56.1395 7.96658
7.65701 4.14391 -56.6566 41.648 49.5446 -66.9115 -59.1048 17.3177 14.8318 9.0074
6.92355 5.0898 8.53384 6.97723 -54.2314 -54.1899 -53.0173 -52.947 -55.8618 -52.2867
-51.8145 -54.517 -54.8249 -54.8212 -54.3088 -55.3793 -54.9462 -54.8254 -54.564 4.49951
-51.805 -57.8904 -56.859 100.531 129.159 144.725 155.187 168.102 162.935 160.746
148.75 188.248 -52.8801 -53.8137 -51.9016 -7.44466 -10.4843 -3.29904 -49.7754 -49.7967
-49.7794 -50.0596 -53.1988 -47.2862 -48.8337 -47.5949 -47.1042 -47.8089 28.8415 20.272
-112.322 -119.934 -119.793 -120.428 -120.771 -74.0118 -96.6107 -74.0156 13.377 16.985
-10.8906 12.0746 11.5182 -5.45966 -7.0367 4.13204 2.51878 1.01096 0.665301 -0.608159
-2.22599 -0.96965 4.16881 4.54706 0.625302 2.86551 4.52067 2.43242 1.34602 13.3122
17.5843 -50.1126 5.52021 12.7787 8.53015 16.4915 8.48821 11.1899 14.2051 15.9777
4.82161 5.02917 6.4769 5.90552 -2.03914 -3.94944 -6.18855 -6.09018 4.88783 1.70256
4.40669 9.44406 15.3334 16.5368 8.23814 5.67859 3.06745 2.76114 7.20094 10.6663
11.3201 11.9588 11.0919 5.71763 -3.50914 5.59273 -2.75529 3.23867 -3.51797 2.47723
10.99 8.33017 12.3585 6.97693 9.46515 11.3741 10.7715 10.4728 7.92821 8.62688
9.14579 9.39212 7.89144 7.36477 7.37563 6.0177 -5.42963 -8.92888 -7.15318 6.48683
5.8955 7.96106 6.25489 -9.14306 -10.8949 1.10821 7.06395 5.8953 -1.63919 5.6891
-137.316 -137.86 -138.023 10.247 -55.5954 -54.5512 -54.6039 5.25417 9.92758 5.34148
8.4153 10.9934 -55.7544 -55.7194 -55.0881 -54.7805 -61.0691 -60.5693 -61.0538 -69.1033
-116.098 -119.925 -113.779 -120.636 -49.0322 -49.5624 -47.4962 -47.1955 -47.4619 -47.1711
-14.6345 -14.6343 -17.0577 -52.6834 -52.4985 -52.2569 5.14906 1.52639 4.99506 4.96689
-52.0572 -52.4922 -52.615 141.766 151.118 -55.3116 -50.7567 13.3515 13.9024 11.6019
7.22272 11.4911 18.7398 4.22731 3.34661 4.68952 3.68186 -53.3485 -57.2959 -57.1089
-55.3541 7.76781 15.0789 11.1203 4.10522 4.25836 10.078 8.83496 9.5216 8.63178
10.4076 12.4264 10.2723 5.84184 8.5761 8.23083 -54.2063 -50.2275 -48.5733 91.2246
80.2557 84.2209 66.7474 72.7311 -4.7395 -2.87646 0.350291 -1.42504 7.64815 8.16152
7.69886 8.28708 8.04917 7.54393 7.08935 116.832 106.797 94.756 -73.9402 -57.3705
-56.0706 -54.9292 -54.7555 -54.4012 -54.3688 163.487 139.77 161.896 162.005 7.63998
4.51064 10.6165 11.3184 7.21907 8.54787 7.45077 6.91604 6.17486 2.79296 -2.32208
4.77135 5.40669 5.98623 4.38285 6.67866 14.4216 9.04702 -12.6974 15.6244 14.3001
7.66888 10.7697 15.935 9.1341 -12.6089 -13.527 -11.6032 -2.79023 -4.80882 -13.0392
7.2496 5.31559 -14.6274 -16.2297 7.21133 4.90141 -0.963839 -3.84885 -55.1097 -45.9641
13.0732 1.97086 0.307698 -0.0806488 5.99815 5.56058 6.48714 6.07809 6.03484 5.62093
0.345746 6.29584 6.9341 -0.393276 5.74924 4.77336 7.2162 6.70848 6.13462 106.199
86.6667 122.016 123.802 5.21323 4.9423 3.49634 -55.3263 5.14296 6.12632 5.90453
-9.47186 -12.4167 -0.173955 6.29366 6.78633 5.43575 8.10853 5.24264 6.93288 3.93271
36.9809 -53.2799 -55.2357 -54.7335 -54.6969 -54.7554 -2.85884 -4.23286 -12.4826 -12.352
-12.3742 -3.39145 9.42376 3.16401 6.01701 7.11581 2.65053 2.43407 0.165292 -0.800924
-10.8107 -5.1514 -4.04861 -11.1765 -4.10048 -12.0275 5.61761 -11.2888 -12.3099 -2.38327
1.25335 6.38684 6.40075 5.83024 8.88788 0.291822 6.70142 -3.01516 -1.025 4.39832
-0.722986 7.25878 4.87803 -9.77248 9.0235 -0.572147 6.18447 1.11736 1.4982 4.86086
5.21414 4.30429 5.02458 3.16927 7.68523 8.91714 5.49588 6.11 1.00678 3.48509
11.1045 5.58212 0.887456 -0.466949 3.67073 173.159 176.982 176.116 181.029 169.129
168.098 172.678 179.953 180.945 69.4285 73.6412 54.7763 -56.1961 -41.5379 -38.6546
-36.9244 -31.0267 -43.8042 -52.0323 -51.6822 -55.344 -46.7838 100.763 154.472 162.111
155.252 146.986 -56.6617 -56.2565 -56.5937 -56.3643 -55.8704 -56.3245 -54.9492 -55.254
-55.0945 3.96973 -0.327487 171.246 -18.4494 186.023 190.269 189.417 -51.347 -47.33
182.755 185.885 186.061 -16.3175 -51.2167 85.2651 -55.0635 -55.1932 -55.4515 -55.4149
-49.4856 189.391 -2.42115 189.507 185.528 189.101 7.37225 -64.3325 110.611 109.917
-55.9355 4.67893 -51.8051 -53.1136 -51.9184 -138.279 138.73 -54.914 159.213 -52.0402
-120.851 -120.769 72.2641 6.98782 2.65687 168.084 164.697 -15.4238 139.856 191.113
190.008 185.408 189.461 190.796 189.791 172.803 191.167 186.788 189.962 191.202
0.615168 0.610702 0.636032 0.705159 0.919141 1.62337 2.20951 -3.98366 1.35855 0.0240672
-4.10043 -5.86992 0.40905 0.0903074 -0.00162109 0.00528635 0.0102977 0.00563369 0.000980416 -0.000617008
-0.000314026 0.000245075 0.00115523 0.000615236 -54.2291 -52.5146 -134.115 -134.671 -48.0412 -48.5095
-49.1926 -47.8797 -48.3913 -49.1182 -49.7881 -47.3754 -95.1873 -74.8064 -48.9009 -47.2245
-74.2449 -48.8236 -51.3388 -51.6954 -50.8047 -99.6912 -111.326 -129.616 -119.923 -119.742

U 3 2021 float
20.0062 -0.0460236 -0.215701 20.0438 -0.0309616 -0.0740006 19.929 -0.00654173 -0.0964766 19.9356 -0.0561147
-0.606451 20.0175 -0.0595047 0.0399583 20.0179 -0.0593995 0.039991 20.1681 -0.0784628 0.057519
20.2329 -0.0866732 0.0655574 20.2784 -0.0916679 0.149274 20.2911 -0.116434 0.263873 20.2101
-0.117712 0.208678 19.9543 -0.047378 0.0198509 19.9967 -0.0548168 0.0183533 20.0037 -0.053094
0.00697772 19.8525 -0.024611 0.0176518 19.8513 -0.0213876 0.0141094 20.0059 -0.0527975 0.00189367
19.8537 -0.0199722 0.00963186 20.0043 -0.0519723 0.000512518 19.8528 -0.0183147 0.00873693 20.0026
-0.0511461 -2.10796e-05 19.8514 -0.0167611 0.0084374 20.0011 -0.0503826 -0.000303196 19.8503 -0.0154268
0.00820389 19.9995 -0.0496957 -0.000485165 19.8492 -0.014266 0.00798864 19.9979 -0.0490363 -0.000611476
19.8481 -0.0132069 0.00780115 19.9962 -0.0483882 -0.000709926 19.8471 -0.0122436 0.00760342 19.9945
-0.047754 -0.000745658 19.846 -0.0113609 0.00751504 19.9926 -0.0470979 -0.000835944 19.845 -0.0104326
0.00723875 19.8445 -0.00994979 0.00693919 19.9922 -0.046887 -0.000876053 19.9996 -0.000343251 3.12909e-05
20 0 0 20 0 0 19.9996 -0.000343262 7.86896e-05 19.9983
-0.000792894 9.38744e-05 19.9984 -0.000802415 0.000278744 19.9942 -0.00156018 0.000368196 19.9941 -0.0015246
0.00100011 19.9788 -0.00281995 0.000335364 19.9796 -0.00314219 0.00357775 19.9464 -0.00550892 -0.00906205
19.9362 -0.0062705 -0.00796897 19.9389 0.00222982 -0.0143288 19.9277 -0.00550524 -0.0295167 19.9061
0.00518404 -0.0610275 20.2332 -0.0729991 0.00184055 20.0484 -0.029118 -0.0566454 20.2353 -0.0720809
0.00511296 19.927 -0.0894058 0.0305593 20.0249 -0.118864 0.0820064 20.2326 -0.0866415 0.0650387
19.8545 -0.0298251 0.0233824 19.3066 0.120208 0.00995625 19.3387 0.117625 0.0110744 19.3668
0.111891 0.011142 19.3879 0.107589 0.0118387 19.4062 0.103794 0.0123533 19.4232 0.100197
0.0125381 19.4392 0.0967974 0.0125515 19.4541 0.0935982 0.0124866 19.4684 0.0905488 0.0123534
19.4815 0.0876595 0.0122458 19.4963 0.0848392 0.0119702 19.505 0.0833924 0.0117142 20
0 0 19.9996 -0.000343773 0.000137357 19.9985 -0.000800679 0.000490451 19.9945 -0.00153027
0.00171971 19.98 -0.00326267 0.00603447 19.9197 -0.0088131 0.0107453 19.9194 -0.00799322 0.00100508
19.8499 -0.0166566 -0.0957858 19.7932 -0.0205895 -0.0681472 19.9555 -0.0515744 -1.02434 20.4347
-0.0688217 -0.934189 20.2159 -0.0539965 -0.508917 19.9304 -0.056142 -0.635947 20.31 -0.16406
0.453259 20.3103 -0.164943 0.456718 20.1016 -0.250543 0.582745 19.9914 -0.239696 0.301507