# vtk DataFile Version 2.0
sampleSurface
ASCII
DATASET POLYDATA
POINTS 2021 float
-0.500032 0 0.11501 -0.499951 3.38813e-21 0.0392727 -0.789037 8.47033e-21 0.120673 -0.500013 -1.35525e-20
0.193965 1.00003 0 0.0485099 1.00003 0 0.0478584 0.475202 0 0.0353615
0.250044 1.41878e-20 0.0305359 0.2506 -5.42101e-20 0.117067 0.251301 0 0.203885 0.364989
0 0.203772 1.75002 0 0.113255 1.75002 0 0.0564279 2.50001 6.89146e-18
0.059229 2.21354 0 0.250758 2.50001 0 0.252875 3.25001 -3.47927e-17 0.0598775
3.25001 -1.69407e-21 0.253888 4.00001 5.60566e-18 0.0599857 4 0 0.253986 4.75
-1.79088e-17 0.0599988 4.75 8.47033e-22 0.253998 5.5 -2.79246e-17 0.0599999 5.5 -4.23516e-22
0.253999 6.25 1.01187e-17 0.06 6.25 0 0.254 7 2.93732e-17 0.06
7 0 0.254 7.75 -2.65294e-17 0.06 7.75 0 0.254 8.5
1.8923e-17 0.06 8.5 0 0.254 9.25 -2.88552e-17 0.06 9.25 -5.29396e-23
0.254 10 -2.64698e-23 0.254 10 0 0.06 -4.24997 0 0.0599042
-5 0 0.0599861 -5 0 0.253986 -4.24997 0 0.253912 -3.49995
0 0.0593815 -3.49994 0 0.253441 -2.74993 0 0.0570188 -2.74991 0
0.251316 -1.99991 0 0.0492276 -1.99987 0 0.242776 -1.24992 -1.69407e-21 0.03
-1.24985 1.23328e-17 0.222327 -1.24989 3.38813e-21 0.125756 -0.874924 2.08116e-17 0.03 -0.874929
0 0.122356 -0.124951 -8.47033e-22 0.03 -0.499941 0 0.03 -0.124922 -8.47033e-22
0.0385291 1.00021 0 0.231242 0.625368 0 0.203537 0.25004 -2.11758e-22 0.03
1.75003 0 0.247334 1.92873 1.69407e-21 0.441438 2.50001 0 0.447397 3.25
-1.69407e-21 0.447898 4 0 0.447986 4.75 0 0.447997 5.5 -4.23516e-22
0.447999 6.25 4.23516e-22 0.447999 7 0 0.448 7.75 -1.05879e-22 0.448
8.5 0 0.448 9.25 0 0.448 10 -2.64698e-23 0.448 -5
-8.47033e-22 0.447985 -4.24997 0 0.447919 -3.49993 0 0.4475 -2.74988 0
0.445609 -1.9998 6.77626e-21 0.437758 -1.24969 1.61411e-17 0.417681 -1.24976 -6.77626e-21 0.31973
-0.875161 7.70461e-18 0.216228 -0.875403 0 0.312476 -0.499924 -8.74138e-19 0.250039 -0.312433
0 0.250037 -0.312436 0 0.200025 -0.499924 0 0.200026 0.250062 3.38813e-21
0.24921 0.250039 -1.69407e-21 0.250046 0.250032 0 0.300069 0.437526 3.05948e-18 0.300066
0.625026 0 0.30005 1.00072 -8.23994e-18 0.326497 1.00196 0 0.423 1.75013
0 0.439575 1.75013 1.77877e-20 0.448245 1.00135 0 0.537141 1.00002 0
0.61834 1.74999 2.71051e-20 0.633055 2.49999 -3.38813e-21 0.641448 3.25 0 0.641907
4 -1.69407e-21 0.641985 4.75 -8.47033e-22 0.641996 5.5 -4.23516e-22 0.641998 6.25
0 0.641999 7 0 0.641999 7.75 0 0.642 8.5 5.29396e-23
0.642 9.25 -5.29396e-23 0.642 10 0 0.642 -5 0 0.641985
-4.24997 -1.69407e-21 0.641926 -3.49993 0 0.641557 -2.74988 0 0.639897 -1.99989
6.77626e-21 0.63382 -1.25099 2.55465e-18 0.614606 -1.25 -2.71051e-20 0.515981 -0.878244 0
0.50789 -0.875961 2.71051e-20 0.459694 -0.875609 0 0.410432 -0.498432 0 0.400603
-0.498071 -1.70762e-18 0.413126 -0.450805 0 0.413349 -0.45095 0 0.400955 0.250009
1.89735e-19 0.412703 0.25 2.71051e-20 0.425212 0.296872 1.00289e-18 0.425187 0.343754 -2.71051e-20
0.425153 0.343763 0 0.400146 0.250006 0 0.400175 1.00162 1.41488e-17 0.520353
-2 4.23516e-22 0.820145 -2.09502 -2.11758e-22 0.830091 -2 0 0.829497 -1.25123
0 0.813251 -1.25126 0 0.713737 -1.25101 6.77626e-21 0.62198 1.00059 0
0.714169 1.00094 0 0.809205 1.75018 0 0.82775 2.5 0 0.835521
3.25 0 0.835917 4 -1.69407e-21 0.835986 4.75 -8.47033e-22 0.835996 5.5
0 0.835998 6.25 0 0.835999 7 0 0.835999 7.75 0
0.836 8.5 0 0.836 9.25 0 0.836 10 0 0.836
-5 -8.47033e-22 0.835986 -4.24997 0 0.835935 -3.49995 0 0.835616 -2.74991
0 0.83419 -0.970118 0 0.703382 -0.87455 0 0.699864 -0.874264 -2.71051e-20
0.649852 -0.874033 -2.71051e-20 0.599873 -0.49698 0 0.599585 -0.497345 -9.21572e-19 0.612046
-0.450014 0 0.611892 -0.44938 2.71051e-20 0.599454 -2.00002 0 0.84097 -1.84639
-3.38813e-21 1.02215 -1.25185 0 1.01276 -0.896512 -3.38813e-21 0.900668 -0.908183 6.77626e-21
0.801076 -0.904022 -1.86347e-20 1.00093 0.624925 0 0.799916 0.249931 0 0.799891
0.249978 0 0.899916 0.249997 0 0.999939 0.999987 0 0.999957 1.75061
-2.1684e-19 1.02409 2.50003 0 1.0296 3.25 -1.69407e-21 1.02993 4 0
1.02999 4.75 0 1.03 5.5 0 1.03 6.25 2.11758e-22 1.03
7 0 1.03 7.75 0 1.03 8.5 5.29396e-23 1.03 9.25
0 1.03 10 0 1.03 -5 0 1.02999 -4.24998 0
1.02994 -3.49996 -8.47033e-22 1.02968 -2.74996 0 1.02849 -2.00026 0 1.02458
-0.87482 0 0.799893 -0.87491 0 0.899919 -0.49993 0 0.799862 -0.499958
7.6233e-19 0.849889 -0.312476 0 0.849885 -0.312472 0 0.799853 -1.25001 8.04681e-21
1.19601 -0.499979 5.29396e-23 1.10737 -0.731886 2.11758e-22 1.19997 -0.499981 0 1.19997
-0.124987 0 0.999933 -0.477759 -5.29396e-23 0.999933 -0.487556 -1.45584e-22 1.09995 0.250008
0 1.19997 1 0 1.19997 1.7507 0 1.22203 2.50003 -1.35525e-20
1.22368 3.25 0 1.22394 4 0 1.22399 4.75 4.23516e-22 1.224
5.5 0 1.224 6.25 2.11758e-22 1.224 7 0 1.224 7.75
1.05879e-22 1.224 8.5 0 1.224 9.25 0 1.224 10 2.64698e-23
1.224 -5 4.23516e-22 1.22399 -4.24999 -4.23516e-22 1.22395 -3.49998 0 1.22374
-2.75001 0 1.22279 -2.00077 0 1.21965 -1.24997 4.23516e-22 1.19997 -0.499969
-5.29396e-23 0.999933 -0.874942 0 0.999936 -0.499979 -1.32349e-23 1.09995 -2.75001 0
1.36967 -3.18711 4.23516e-22 1.41751 -2.75001 4.23516e-22 1.4171 -2.00072 3.38813e-21 1.29692
-2.00065 0 1.41474 -1.25823 6.35275e-21 1.40014 -0.980416 0 1.39998 -0.499986
0 1.39998 0.250009 0 1.39998 1 0 1.39998 1.75054 0
1.41682 2.50002 -1.35525e-20 1.41776 3.25 0 1.41796 4 4.23516e-22 1.41799
4.75 0 1.418 5.5 0 1.418 6.25 0 1.418 7
0 1.418 7.75 0 1.418 8.5 0 1.418 9.25 0
1.418 10 0 1.418 -5 0 1.41799 -4.24999 0 1.41797
-3.49999 -4.23516e-22 1.41781 -1.24998 0 1.39998 -2.80392 1.32349e-23 1.61143 -2.75
-1.32349e-23 1.6114 -2.0003 0 1.60983 -1.25396 2.64698e-23 1.60004 -1.12789 2.64698e-23
1.59999 -0.49999 1.05879e-22 1.59999 0.250008 0 1.59999 1.00001 4.23516e-22 1.59999
1.75038 0 1.61122 2.50002 0 1.61184 3.25 -4.23516e-22 1.61197 4
-4.23516e-22 1.61199 4.75 0 1.612 5.5 0 1.612 6.25 0
1.612 7 0 1.612 7.75 5.29396e-23 1.612 8.5 2.64698e-23 1.612
9.25 -1.32349e-23 1.612 10 -1.32349e-23 1.612 -5 0 1.61199 -4.24999
0 1.61198 -3.49999 0 1.61187 -1.24999 0 1.59999 -2.75 -1.32349e-23
1.63714 -2.64195 -2.11758e-22 1.80559 -2.00012 -8.47033e-22 1.80492 -1.25741 0 1.80004
-1.19082 -7.94093e-23 1.8 -0.499992 1.05879e-22 1.79999 0.250006 2.11758e-22 1.79999 1
0 1.8 1.75023 0 1.80561 2.50001 3.38813e-21 1.80592 3.25 0
1.80599 4 0 1.806 4.75 2.11758e-22 1.806 5.5 0 1.806
6.25 0 1.806 7 0 1.806 7.75 0 1.806 8.5
2.64698e-23 1.806 9.25 0 1.806 10 0 1.806 -5 0
1.806 -4.25 -2.11758e-22 1.80599 -3.49999 0 1.80594 -2.75 -1.05879e-22 1.8057
-1.24999 0 1.8 -2 -4.76456e-22 1.98532 -1.20969 -1.65436e-23 2 -0.499993
0 2 0.250006 0 2 1 0 2 1.75 0
2 2.5 0 2 3.25 0 2 4 0 2
4.75 -1.05879e-22 2 5.5 0 2 6.25 0 2 7
5.29396e-23 2 7.75 0 2 8.5 0 2 9.25 0
2 10 -1.32349e-23 2 -5 2.21817e-18 2 -4.25 1.05879e-22 2
-3.49999 0 2 -2.74999 0 2 -1.99999 -5.29396e-23 2 -1.24999
3.30872e-24 2 0.0956945 -5.42101e-20 0.203879 0.0632748 0 0.203876 0.0625511 0
0.250042 -0.403589 6.77626e-21 0.40138 -0.405779 7.7927e-19 0.38799 -0.406379 -6.77626e-21 0.375196
-0.499567 -1.35525e-20 0.375265 0.250006 -6.50521e-19 0.375144 0.156247 0 0.375155 0.156237
9.41901e-19 0.400212 0.203129 0 0.400201 0.249796 0 0.59991 0.249852 -1.0842e-19
0.587433 0.202953 0 0.587417 0.202888 6.50521e-19 0.599901 0.625121 -6.77626e-21 0.499953
0.717439 6.77626e-21 0.504955 0.625095 6.77626e-21 0.475379 0.343596 1.0842e-19 0.599918 0.343639
0 0.574939 0.296781 0 0.574964 0.249926 0 0.574977 0.62499 -4.2826e-18
0.549927 0.624917 4.55365e-18 0.599925 0.203133 0 0.412725 -0.449046 0 0.587135
-0.496581 5.42101e-20 0.587161 0.625036 -9.32414e-18 0.40006 0.625067 1.13164e-18 0.450032 0.249704
0 0.624881 0.155871 0 0.599866 0.155839 1.95156e-18 0.624853 0.249886 1.35525e-20
0.749873 0.062411 0 0.749846 0.0624478 -4.26227e-18 0.799869 -0.312472 0 0.749804
-0.499901 -3.38813e-21 0.749824 -0.691227 0 0.30453 -0.499912 3.02221e-18 0.300065 -0.875784
-3.11708e-18 0.361353 -0.592465 -2.71051e-20 0.40036 -0.499854 0 0.350135 -0.687111 1.35525e-20
0.350117 -0.68656 -2.71051e-20 0.40021 0.437526 -1.35525e-20 0.400108 0.437522 6.77626e-21 0.350086
0.250015 -2.51399e-18 0.35011 0.625027 3.38813e-21 0.350064 -0.592287 0 0.425286 -0.498048
0 0.425444 -0.873902 5.42101e-18 0.54992 -0.496663 0 0.574746 -0.591532 0
0.574798 -0.591729 0 0.599734 -0.149108 0 0.406489 -0.149477 -5.29396e-23 0.403592
-0.149678 0 0.406489 -0.451876 -2.1684e-18 0.499977 -0.451579 0 0.487563 -0.498366
0 0.487552 -0.498515 -1.0842e-19 0.499993 0.437553 0 0.450075 0.437532 -6.07153e-18
0.425113 0.254621 -1.25361e-19 0.496697 0.26485 -5.42101e-20 0.498023 0.264831 0 0.496529
0.254636 -2.30393e-19 0.49668 0.570241 0 0.499932 0.437665 -2.71051e-20 0.474991 0.437859
-2.71051e-20 0.49988 0.437372 -1.0842e-19 0.599915 0.249722 3.25261e-19 0.649874 0.43732 -5.42101e-20
0.649899 0.624872 0 0.649914 0.624883 -3.95734e-18 0.699913 0.43734 6.83047e-18 0.699894
0.249817 0 0.699869 -0.592227 0 0.624743 -0.498071 -2.71051e-20 0.624658 -0.499769
6.77626e-21 0.69979 -0.687025 0 0.699824 -0.150854 -1.03677e-18 0.599678 -0.151059 -6.77626e-21
0.605522 -0.127339 6.77626e-21 0.605681 -0.127867 0 0.599582 -0.406139 -4.40457e-20 0.699754
-0.406113 0 0.674749 -0.499634 0 0.674774 -0.18433 -4.23516e-22 0.674527 -0.163626
-4.23516e-22 0.678958 -0.165125 0 0.674537 -0.171868 4.23516e-22 0.674524 -0.14924 3.34737e-19
0.400169 -0.125737 0 0.400165 -0.12551 0 0.393854 -0.149076 -2.11758e-22 0.393877
-0.499925 -2.61564e-18 0.325088 -0.406241 0 0.325087 -0.4062 0 0.300069 -0.124901
0 0.300062 -0.218633 -3.27294e-18 0.299673 -0.218596 1.35525e-20 0.324664 -0.124851 0
0.325085 -0.126061 7.86047e-19 0.406473 -0.0785222 1.30782e-18 0.400166 -0.126118 3.38813e-21 0.41275
-0.0785648 0 0.412729 0.240678 1.0842e-18 0.500153 0.252614 -2.1684e-19 0.498317 0.252386
1.0842e-19 0.496231 0.241035 0 0.496114 0.228892 -1.35525e-20 0.496204 0.228835 6.77626e-21
0.498715 0.229819 2.71051e-20 0.500074 0.25248 0 0.499935 0.240657 -1.6263e-19 0.500957
0.264863 0 0.500154 0.264689 0 0.500951 0.437443 0 0.549896 0.437406
[...]
POINT_DATA 2021
FIELD attributes 2
p 1 2021 float
1.92958 1.36881 2.32281 4.26251 0.0724116 0.0702884 -4.17515 -6.00666 -7.64174 -6.06803 -4.24493
0.49242 0.460537 0.106876 0.321748 0.169778 0.000679663 0.0251208 0.0036079 0.0142959 0.00801959
0.0161615 0.00428218 0.0110996 0.000266661 0.00564325 -0.00185558 0.00231752 -0.00251849 0.000743275 -0.00239111
-2.03478e-05 -0.000664378 0.00174418 0 0 0.611911 0.607502 0.607349 0.611624 0.632591
0.6317 0.701904 0.698818 0.921264 0.918254 1.62395 1.7469 1.75929 2.20263 2.43949
-4.07919 1.3001 -4.1328 0.666901 -0.0828684 -5.99652 0.567618 0.437326 0.183798 0.0263399
0.00785052 0.0116776 0.00832769 0.00323233 -1.3531e-05 -0.00140566 -0.00278121 0.000497583 0 0.606914
0.610853 0.629299 0.689895 0.897928 1.94284 2.01306 3.08774 3.83146 7.19269 -3.49782
-1.18204 4.48116 -5.57381 -5.56487 -2.127 0.344569 0.823757 1.04234 0.914513 0.516578
0.512572 0.744409 0.775085 0.42704 0.164096 0.0205002 0.00248509 0.00826255 0.0064131 0.00189009
-0.000871874 -0.00176187 -0.00266632 0.000729519 0 0.606222 0.609666 0.625691 0.67736 0.858448
1.84183 2.12359 5.10967 5.55621 4.79194 32.4333 36.3235 51.8469 45.797 4.90663
4.99984 3.43882 3.49443 2.72798 4.21641 0.738106 0.805215 0.784817 0.802543 1.39403
1.77984 1.83725 0.944391 0.473375 0.351657 0.1277 0.0120531 -0.000150926 0.0070938 0.00634383
0.0024344 0.000280125 -0.000144462 4.66053e-05 0.00199807 0 0.605347 0.60819 0.621296 0.662642
3.24835 3.74754 4.67125 4.74511 34.346 32.6886 44.6502 50.775 0.798747 0.779451
0.939598 1.70808 2.63213 1.14645 0.0677862 -4.86416 -5.29607 -2.73793 -0.230044 0.191765
0.0739449 -0.00734025 -0.0129233 -0.00251189 -0.000467182 -0.00237375 -0.00298306 -0.00228028 -0.00119313 0.000241462
0 0.604379 0.606575 0.61651 0.64682 0.737981 2.75244 1.73826 5.24935 3.34092
0.631101 -0.560195 0.69814 0.327598 0.320238 0.153419 -1.68145 0.699431 0.298711 -0.966554
-0.396386 0.0982654 0.0658402 -0.00450864 -0.0130774 -0.00276664 0.000142922 -0.0012642 -0.00159419 -0.000809449
0.000170984 0.000941875 0 0.603416 0.604972 0.611702 0.630842 0.67487 0.692914 0.849334
1.16374 0.341559 0.619704 0.610981 0.616107 0.654704 0.623949 0.566932 0.386549 0.06619
-0.559746 -0.379621 0.0466634 0.0604921 -0.00575982 -0.0172302 -0.00595642 -0.00190229 -0.00286604 -0.00297908
-0.00208649 -0.00107483 -0.0003199 0 0.602553 0.603522 0.607312 0.566299 0.604402 0.604449
0.588995 0.495656 0.427928 0.0821943 -0.431689 -0.349955 -0.000293486 0.0491541 -0.00929379 -0.0208078
-0.0078955 -0.00278431 -0.00347222 -0.00347978 -0.00250516 -0.00141336 -0.000573397 0 0.601874 0.602354
0.603792 0.495159 0.603476 0.593014 0.568747 0.457886 0.427887 0.0905906 -0.361898 -0.333441
-0.0266998 0.0439037 -0.00966392 -0.0218266 -0.00857238 -0.00316125 -0.00383114 -0.0038164 -0.00277149 -0.00159846
-0.000677034 0 0.601433 0.601574 0.601463 0.597099 0.456778 0.562501 0.425595 0.0934028
-0.339685 -0.328123 -0.0349847 0.0423097 -0.00972907 -0.022206 -0.0089031 -0.00337968 -0.00400224 -0.00393331
-0.0028274 -0.00160593 -0.000649744 -0.00011011 0.601278 0.601292 0.600624 0.594591 0.561993 0.444459
-10.1719 -11.0263 -11.6013 70.2249 59.7532 43.562 29.5018 3.04983 1.96631 4.71498
5.25724 3.73242 3.95448 5.4384 4.93975 1.93057 1.63801 2.06084 2.56994 3.08802
2.5712 3.18128 2.11052 1.76155 6.27264 56.2467 39.4223 1.88571 2.1949 3.63559
4.26271 2.16466 -4.45966 -11.1393 -9.81358 -3.00368 8.54855 6.93282 11.7758 4.70774
17.3716 20.6621 9.06575 10.4502 2.57525 1.48665 1.10029 1.61965 19.6419 36.7896
5.59095 39.6147 20.3081 18.8135 -58.8997 -58.7008 -58.9082 68.3537 68.2543 47.4585
44.7062 3.4666 3.162 -6.73203 -0.66833 -0.802184 -6.78725 2.50879 4.01374 3.89955
2.61914 1.90591 1.64351 1.50546 0.882598 0.711657 -1.2574 17.0139 28.1162 13.3481
7.28861 -55.0577 -54.8925 -57.2813 -57.3847 14.0449 19.2939 18.5283 -45.8807 -42.4248
-44.1062 -44.8107 -58.4557 -57.1301 -57.2378 -57.8625 16.4627 15.6089 11.7822 -29.1986
-28.202 -45.6765 -36.7634 -58.5564 -44.6803 -58.2634 -46.8819 10.9797 3.63438 10.5531
11.9929 9.09224 9.359 9.65491 3.80885 11.1095 -0.0878829 -0.325555 3.4444 3.15517
3.98027 4.14483 47.6703 68.2488 -57.4635 -54.9355 5.90956 11.1111 -51.63 -53.2232
-57.2351 4.01982 5.67438 6.23363 6.34412 -31.2561 -39.9166 -48.8378 -29.3908 64.2576
60.6335 41.5299 41.2878 -42.7578 -55.6605 -11.1964 -8.02182 -0.198569 -23.707 -42.0305
42.9328 44.2675 64.2709 66.426 -51.3461 -49.7993 -50.7525 0.490606 -9.7172 -12.7076
-11.5953 -21.6595 -24.9865 -56.4486 43.9341 21.7812 22.0857 11.6439 11.9507 12.1476
13.0882 21.9747 44.434 10.7818 12.437 11.8702 13.2006 -58.8568 -58.7855 -57.7222
-57.7071 -57.7567 -57.357 -57.146 45.702 66.6892 -58.565 -58.2528 -58.7595 -58.4863
-28.3243 -33.5577 -31.3915 -12.4845 -0.65512 -4.12451 -49.5598 -49.1633 -57.592 -11.9542
1.0078 1.00555 -12.1112 -57.9408 -55.9838 -50.4544 -11.3483 -9.15868 -2.72522 2.40975
-7.9764 -6.75202 -20.0571 -39.7951 -42.7923 -37.3767 -52.4241 -53.221 -53.373 -5.26685
-18.8593 -19.9002 -6.13019 -55.6082 -51.9312 -55.6779 -4.45002 -10.3204 -17.5596 -10.5705
67.4631 46.805 -53.0723 -53.1342 -55.8979 -55.9317 -55.4065 -52.6944 -56.2026 -53.6116
-55.3223 -58.7949 -59.0564 -59.0786 -30.7828 -75.3424 -94.1897 -98.9567 -100.595 -100.12
-46.6529 -50.0571 -54.1551 -47.8549 -51.2578 -99.8028 -100.694 -72.1279 -35.2797 -57.9812
-58.8883 -58.9902 -55.9698 -56.7604 -57.4971 -57.4208 -57.5415 7.75036 6.78695 9.66426
-55.3617 -55.3018 -55.4202 -54.8978 -54.9628 -55.3714 -55.8413 -54.4915 -54.4743 1.4867
1.00581 -0.217562 0.587705 3.35154 3.7676 0.536306 -55.3774 -55.8907 -56.5288 5.80971
6.6571 2.70513 0.709571 3.07271 -30.9357 -36.8438 -36.4038 -30.857 -52.9674 -53.462
-56.6481 -56.5479 -54.3116 -55.3145 -39.5228 -43.8812 -43.3744 -37.3472 -45.7269 -49.4158
-52.2301 -52.4746 -51.5553 123.794 131.696 146.973 147.058 -57.7126 -56.4523 -56.6922
-57.4381 -57.9217 5.0665 2.86788 3.4866 5.00584 -10.7182 -4.74292 -7.22298 -10.25
-13.1652 -40.0717 -37.28 -26.2341 -28.5275 -33.263 -40.1475 -24.4321 -24.0693 31.2887
41.5015 52.2861 37.9612 23.1086 20.227 34.7894 26.6668 0.728146 0.887183 2.02709
33.7368 24.6023 16.5583 21.5533 2.17381 3.42072 3.9072 3.87982 2.92283 5.82085
5.83535 3.70339 -9.06537 -7.81756 -1.26459 -10.0285 14.7062 9.14786 10.8152 -53.4442
-55.5878 -55.706 -53.6176 -81.493 -80.2162 -83.4322 -47.5289 -11.9378 -17.9183 -26.3965
-55.7052 -52.3863 -55.28 -56.4815 -74.3104 -73.9162 -58.6881 -59.8325 -48.3932 -48.82
-50.4909 -51.1481 2.68742 2.73995 -1.68746 5.81169 5.36523 4.11597 4.88077 5.73263
5.99875 -53.0824 -52.5645 -67.7454 -66.9188 78.7636 93.8146 85.3933 111.885 106.179
88.6262 89.9505 161.731 164.056 153.199 121.429 98.2187 104.176 97.1052 117.428
-12.0523 -25.7367 -29.7418 -5.15109 -25.0499 -51.6402 -40.5464 -5.66433 93.9052 101.375
86.8797 78.3561 96.7241 88.4493 107.726 148.581 158.267 167.441 165.147 106.588
102.892 159.721 -33.0471 -8.25851 -39.0727 -28.6277 -47.4807 140.104 139.963 115.476
110.466 110.099 115.367 139.473 138.851 107.977 167.131 170.738 171.915 172.21
173.636 186.597 186.785 174.741 173.193 -31.6659 -38.9386 -31.6626 -55.6488 -49.967
-41.6944 -41.0465 -39.6557 -24.3449 3.55413 -1.7172 0.0367728 173.315 175.265 187.141
172.299 186.461 187.102 175.159 172.183 179.622 181.776 170.109 168.879 179.912
167.849 171.08 182.424 -53.1031 -39.1993 -37.5651 -55.189 -55.3077 -55.5546 -36.88
-46.5058 -36.8128 -37.3348 -46.0238 -45.9737 -4.21149 -10.2227 -25.9714 -25.8574 -31.662
-42.4266 -31.557 -31.2865 -41.9542 -20.0061 -18.2341 -19.5887 115.314 140.043 138.053
138.955 114.589 109.225 170.03 169.895 170.463 167.711 136.342 108.334 113.504
137.084 -56.0205 -52.6756 -52.1364 -51.9848 -55.1195 -46.4817 89.7762 92.9989 78.201
-13.9294 -5.25537 -4.85366 -18.7364 55.2127 57.2016 70.8133 74.1329 -56.213 -55.3767
-55.638 -56.1527 -57.3519 -57.6199 -57.8868 -57.9796 -56.5749 -56.6557 -56.2917 -56.4795
-130.779 -105.787 -74.8535 -93.7752 -96.0375 -97.6927 -97.682 -82.0937 -79.3618 -93.1991
-72.783 -88.0339 -136.434 -139.924 -131.373 -97.0656 -97.7782 -55.5436 -54.9351 -55.5077
-56.583 -56.7492 -54.715 -54.5061 7.30697 7.59562 14.0116 16.8327 14.0137 -50.5104
-49.9809 -45.5081 -45.5333 -47.0393 -46.945 -46.9337 -46.7413 12.9913 12.4799 17.1708
7.36999 7.10328 8.68159 9.2367 9.34832 8.08066 6.79036 7.4907 11.9607 15.3932
13.4058 0.0295621 -2.04956 -4.32877 6.38907 5.31452 4.07764 5.81813 6.54093 -52.4863
-53.5554 -55.9832 -55.2351 -49.102 -50.2968 13.928 16.1777 17.5345 -47.3441 -49.2382
-49.4708 -47.1967 -46.7252 11.2602 10.9852 11.0286 9.35011 6.29201 -8.50104 -7.2288
4.46691 5.36515 5.3705 -48.9928 -49.6296 146.264 148.287 140.673 136.742 112.973
118.021 125.463 120.846 184.542 185.82 182.11 178.345 -56.7158 -56.7157 -53.6208
-53.5017 169.593 183.344 185.035 172.949 174.397 186.535 170.994 182.143 169.597
179.298 -17.7826 -20.5925 -25.0687 -30.1917 -28.5391 -25.2855 -8.25662 -2.9442 -3.13503
-8.30033 -13.3468 -13.2955 -1.16608 -9.10123 -9.96517 -15.1921 -18.1409 -8.62646 -9.28508
-24.95 -20.433 -9.56654 -0.712426 -3.01459 6.6531 -2.77224 6.63765 7.44777 2.51361
3.02154 3.77632 3.52145 8.12603 6.4164 3.91862 5.81005 -18.7738 -15.7726 -26.1349
-21.177 -56.7188 -58.3491 -58.916 -58.8129 2.91769 3.01465 5.18257 5.61321 4.41556
5.05746 -15.1181 -40.9237 -57.5974 -65.6844 -53.9556 -32.6566 -59.0518 11.1056 10.5217
10.5472 -4.35153 -1.18517 11.97 17.8943 9.12646 25.0237 21.6529 10.7509 0.513005
6.32804 7.9754 13.3326 11.5358 5.93856 -54.0361 -43.8662 -49.4809 -12.3051 -43.0367
-23.8687 -59.5202 -82.237 108.332 92.3136 105.86 108.012 112.428 111.532 172.801
171.923 173.178 172.498 171.185 185.902 185.902 185.131 -58.2398 -58.4628 174.474
-56.4523 -56.4584 -57.6758 -57.7996 -57.5791 -56.3232 -153.435 -140.085 -139.966 -136.703
-161.228 -139.868 -135.514 -135.851 -121.603 -117.25 -82.3566 -73.4391 -73.7494 -71.1434
-121.277 -123.247 -57.2436 -56.2871 -54.9239 -57.6888 10.1601 7.86784 11.2775 8.69912
11.6891 12.6601 13.1082 13.8007 14.6466 -54.6439 -53.7941 -55.9104 -54.4998 -52.429
-52.1875 -52.3313 -54.3284 -7.24144 -1.37276 -2.13028 -5.75426 8.82525 8.9166 6.31723
5.60075 7.20322 9.13256 8.4188 6.33212 0.550399 7.42481 6.28591 6.23499 9.08303
10.9074 9.65563 12.4514 11.783 -54.4247 -54.748 -53.6648 -53.7808 -53.9592 -53.868
-53.4052 -50.8169 -52.2863 -52.2968 -52.3933 -50.0613 -51.4031 -72.7164 -72.105 -56.8259
-58.9081 -76.6044 -67.5344 -74.6227 -120.267 -124.366 -132.081 -78.4753 -96.1977 -105.084
-79.3936 -97.4539 128.516 113.312 148.299 151.535 -55.2685 -54.6949 -55.6625 -55.8159
-53.637 143.833 167.84 146.086 -47.7284 -46.8358 -47.1894 -48.025 -47.6194 -47.6528
-47.5734 -46.428 -9.97904 -11.5948 -13.9378 -12.8543 -16.3632 -18.9476 -21.3112 -18.8625
-19.9383 74.9167 85.7262 -57.2716 51.6928 76.7551 65.119 75.1135 60.5753 12.8756
9.888 45.0337 35.9949 7.35478 8.19706 2.79545 4.52339 4.36471 6.78395 5.83839
6.23637 6.55414 7.22877 -51.4664 -50.8825 -50.7727 -51.4289 -2.51609 -2.25161 -2.83232
0.916346 5.05189 4.34793 6.79306 6.02879 -49.8697 -50.1966 -49.9916 137.982 136.059
171.094 184.702 189.018 189.308 186.803 185.268 -56.5647 -56.3465 -56.5987 -56.7154
-53.802 -46.372 -46.9305 -46.9517 -46.3089 -46.3884 -47.4787 -56.3106 -56.3413 -56.9905
-57.4347 -57.2971 -57.2893 -57.4169 -57.1025 -55.6486 -113.158 -109.151 -138.376 -114.577
-137.179 -124.544 -125.965 -136.579 -56.4367 -57.4738 -55.6247 -55.1369 14.1906 12.9165
11.9954 13.0114 13.1873 13.7221 -36.3607 -36.108 -31.7248 -30.8122 -41.5694 -42.4067
-46.9136 -46.3436 -51.2326 -51.2954 -46.0555 -51.5437 -51.2367 -7.51881 -1.94897 -12.9538
-0.755378 0.759033 7.69765 7.32386 7.70522 3.4974 10.2103 7.05612 8.4095 9.40512
10.1605 10.1976 10.2545 12.1852 11.8165 0.950276 11.9453 14.2604 15.4504 2.20285
1.52896 1.1997 2.12398 -58.9583 -57.9761 -54.8272 -56.5111 -46.1354 -45.2631 -41.4146
-45.5885 -47.3258 -51.5829 -53.4073 -50.9888 -51.3573 -50.9659 -47.801 -52.6083 -47.397
2.61031 -49.2725 -50.6929 140.746 131.52 129.165 129.103 129.485 113.916 106.486
188.595 188.073 187.062 -50.6986 -50.9893 -1.22689 -0.711935 0.325282 -29.8946 -30.4482
186.078 186.894 180.376 183.359 181.931 181.544 -34.6056 -30.747 -3.00883 -7.97905
-6.06685 -3.17427 -25.1142 -14.0334 -10.692 -13.505 -20.1026 -4.61324 80.6416 56.3448
60.8266 20.9865 21.3983 67.8793 110.57 10.4731 7.2524 -2.9142 -3.22068 6.96246
7.79834 8.06702 6.26198 6.68399 24.7218 16.6857 0.342331 20.2271 -3.59739 2.39352
8.1187 7.97223 67.9338 110.11 -53.1494 -54.2646 18.5545 91.0659 108.649 100.87
93.2304 108.682 109.607 126.897 134.704 143.505 -56.7174 81.0111 72.9214 49.5267
13.9842 19.8728 18.0294 -72.611 -57.3303 -57.3251 -57.3292 -55.3955 -55.3391 -60.0972
-55.5309 -59.9654 -60.6376 24.6846 -7.1859 5.78888 10.7117 11.1498 -2.95098 -3.05598
-4.27647 -54.0385 -52.2957 -1.70601 2.20816 2.47072 -57.1037 -56.5496 -55.9062 8.09039
7.82591 3.41495 -56.2171 42.1088 48.7842 -68.8478 -61.2036 16.2948 13.9317 8.19783
6.24698 4.26803 7.64441 6.16651 -52.7491 -52.7341 -51.7362 -51.6588 -54.4504 -50.9955
-50.5172 -54.6607 -54.9785 -54.9809 -54.4402 -55.6224 -55.1739 -54.9779 -54.7106 3.43366
-50.5099 -56.7263 -55.5978 100.263 128.916 144.512 154.981 167.961 162.761 160.568
148.551 188.191 -53.1821 -54.6172 -51.8231 -6.49187 -9.51709 -2.54026 -48.3644 -48.4945
-48.1779 -48.2625 -52.3214 -47.2814 -47.667 -46.3505 -46.6019 -47.2116 28.8786 20.4281
-109.067 -116.415 -116.149 -116.749 -117.082 -74.014 -97.2263 -74.0158 13.772 17.5369
-12.6783 11.9732 11.2015 -7.47063 -9.51592 3.39416 1.26712 -0.215715 -1.11379 -2.80087
-4.32353 -2.69466 3.04012 3.13001 -1.76245 1.32058 3.17966 0.860569 -0.562005 13.5536
18.2004 -49.7221 4.79466 12.237 8.19628 16.0147 7.03735 10.2568 13.463 15.2142
3.5227 3.62354 6.47461 5.77885 -3.62391 -5.84295 -8.45146 -8.33589 4.45016 0.42483
3.63552 9.51066 15.9811 17.3224 8.06816 5.18806 2.00851 1.5997 6.83626 10.5995
11.2285 11.9611 11.0752 5.23185 -5.4417 5.08942 -4.514 1.90925 -5.45011 1.33274
11.2543 8.37365 12.7373 7.10922 9.77662 11.7984 11.152 10.8371 8.354 8.82745
9.39092 9.6722 8.25001 7.63227 7.78984 6.27762 -7.18908 -11.355 -9.28407 6.49668
6.03518 8.51623 6.14384 -11.5527 -13.6601 0.239952 7.05898 5.56332 -3.14252 5.20086
-140.29 -140.994 -141.325 10.9977 -55.2646 -54.295 -54.3885 4.81289 9.40393 5.10883
8.06892 11.5306 -55.456 -55.2708 -54.8346 -54.6737 -60.0514 -59.4964 -59.9106 -68.098
-113.359 -116.261 -111.094 -117.004 -47.4823 -48.0364 -46.6597 -46.3806 -46.3605 -46.4395
-16.5927 -16.6134 -19.098 -51.1071 -50.9176 -50.7538 4.16949 -0.0350088 4.21097 3.99209
-50.6056 -50.9684 -50.9777 141.47 150.873 -56.3032 -50.6889 13.6413 14.3229 11.161
6.93045 10.826 18.3203 4.27369 3.37013 4.69923 3.76697 -51.9903 -57.4438 -57.1868
-55.5916 7.55894 15.7328 11.1124 3.64616 3.91333 10.191 8.92804 9.5204 8.70813
10.3836 12.6228 10.1819 5.21133 8.72071 8.2556 -52.7386 -48.7315 -47.6595 91.853
81.1962 84.8693 67.9019 73.7483 -5.23746 -3.21811 0.111634 -1.83106 7.63284 8.21786
7.75775 8.27368 8.07616 7.50481 6.9393 117.179 107.021 94.9871 -73.941 -57.5027
-56.3565 -55.1184 -55.0354 -54.564 -54.6028 163.407 139.679 161.822 161.941 7.78129
4.70798 11.1805 11.7858 7.38073 8.97989 7.54424 7.13077 6.21938 2.55254 -3.00953
4.84649 5.5658 6.16781 4.09164 6.63891 14.9828 9.33598 -15.9214 16.1043 14.1034
6.9691 10.3591 16.6424 9.2822 -15.7136 -16.7938 -14.4226 -4.49249 -6.82914 -16.3055
6.88042 4.64301 -17.9143 -19.8067 5.65606 3.66439 -2.99387 -5.87742 -53.41 -46.2778
13.5448 1.45146 -0.357182 -0.720189 6.00371 5.55948 6.5724 6.06583 6.01023 5.53108
-0.931236 5.84192 6.55293 -1.83698 5.24724 3.99144 7.13344 6.57291 5.86974 106.962
87.651 122.515 124.382 4.87897 4.53075 2.64034 -53.6039 4.78806 6.08114 5.7865
-10.3808 -13.4265 -0.5783 5.93862 6.53718 5.04665 8.2459 4.7292 6.7861 3.12391
36.0831 -51.896 -55.4281 -54.9334 -54.9044 -55.003 -4.59145 -6.31349 -15.9597 -15.8216
-15.8479 -5.31987 8.21754 1.80085 4.88372 6.28268 1.11177 0.958431 -1.68876 -2.68291
-13.3447 -6.84204 -5.64155 -13.669 -5.83967 -14.8542 5.31977 -14.5101 -15.7757 -4.48635
0.607734 6.34325 6.28976 5.77091 8.90521 -0.995629 6.56692 -3.60905 -1.66264 4.18891
-2.3257 7.23268 4.51 -10.6503 8.988 -1.18623 6.18822 0.863328 1.22729 4.88118
5.22355 4.27285 5.07917 1.63323 7.62703 8.75873 5.03684 5.83311 0.200119 2.76056
11.2599 5.105 -0.40578 -0.937727 2.79801 173.043 176.884 176.164 181.061 169.167
168.163 172.749 179.866 180.862 68.8491 73.0918 54.053 -56.5849 -40.8594 -37.761
-36.3649 -30.8146 -44.6978 -49.9815 -49.6253 -54.6854 -47.3811 100.441 154.683 162.258
155.385 147.304 -57.1631 -56.8439 -56.966 -56.8991 -56.0939 -56.8858 -55.2531 -55.5497
-55.4101 4.28393 0.0941354 171.189 -18.1239 185.96 190.215 189.365 -50.6406 -46.4511
182.749 185.893 186.055 -17.2739 -49.1957 85.5646 -55.2926 -55.4064 -55.6342 -55.6011
-50.7716 189.336 -1.9235 189.497 185.493 189.076 7.95256 -63.5279 110.245 109.559
-56.4391 3.90004 -51.6987 -53.5103 -51.8293 -141.544 139.155 -55.1735 159.008 -51.9708
-117.155 -117.08 73.4129 6.96504 1.70986 168.187 164.795 -15.1245 139.727 191.072
189.967 185.429 189.407 190.765 189.753 172.731 191.127 186.735 189.916 191.16
0.611926 0.607508 0.632579 0.701035 0.912325 1.60478 2.17431 -4.00825 1.28796 0.0367712
-4.0717 -5.83432 0.404996 0.0849479 -0.00476757 0.00305166 0.00857491 0.00525837 0.00143971 -0.000621994
-0.00130821 -0.00126209 0.000291166 0.000564428 -52.2849 -50.2839 -129.901 -130.443 -46.6167 -46.9911
-47.54 -46.4272 -46.8509 -47.4487 -47.9041 -46.0526 -95.729 -74.7816 -47.3264 -46.3276
-74.2252 -47.2346 -49.1318 -49.473 -48.673 -98.1449 -108.966 -125.584 -116.259 -116.093

U 3 2021 float
20.0083 -0.0426634 -0.213716 20.0453 -0.0278918 -0.0727189 19.9313 -0.00485116 -0.0956038 19.9395 -0.0525573
-0.603004 20.0185 -0.0540299 0.040135 20.0188 -0.0539261 0.0401721 20.1674 -0.0728572 0.0571616
20.2314 -0.0810082 0.0649598 20.2762 -0.0855693 0.147211 20.2867 -0.108308 0.259204 20.2077
-0.109351 0.205138 19.958 -0.0434016 0.0201791 19.9979 -0.0495335 0.018457 20.0051 -0.0479578
0.00724116 19.8619 -0.0236737 0.018639 19.8608 -0.0204228 0.0151765 20.0073 -0.0477572 0.00215436
19.8632 -0.018927 0.0108957 20.0059 -0.0471365 0.000723027 19.8623 -0.0173989 0.0100582 20.0042
-0.0464978 0.000137373 19.861 -0.0159633 0.00971467 20.0028 -0.0458839 -0.000199447 19.8598 -0.0146992
0.0093662 20.0014 -0.0453437 -0.000403316 19.8588 -0.0135951 0.00902807 19.9999 -0.0448399 -0.000520258
19.8577 -0.0125913 0.00874675 19.9984 -0.0443366 -0.000586103 19.8566 -0.0116741 0.00849266 19.9968
-0.0438237 -0.000571568 19.8556 -0.0108093 0.00839653 19.995 -0.0432621 -0.000603464 19.8546 -0.00987677
0.00814998 19.8541 -0.00939398 0.00786827 19.9948 -0.0430541 -0.000616094 19.9996 -0.000313004 3.12965e-05
20 0 0 20 0 0 19.9996 -0.000313878 7.89618e-05 19.9983
-0.00071629 9.33006e-05 19.9984 -0.000727478 0.000277519 19.9943 -0.00141734 0.000362982 19.9942 -0.00139042
0.000987616 19.9791 -0.0025247 0.000323781 19.9798 -0.00284048 0.00351672 19.9476 -0.00469665 -0.00904874
19.9374 -0.00552141 -0.00812515 19.9402 0.0030094 -0.0143306 19.9299 -0.00419833 -0.0293271 19.9085
0.00637862 -0.0604853 20.2321 -0.0680595 0.00222452 20.0498 -0.0260838 -0.0554498 20.2343 -0.0671644
0.00566555 19.9349 -0.083584 0.0295355 20.0271 -0.110029 0.0810592 20.2311 -0.0809792 0.0644502
19.8637 -0.0289326 0.0242403 19.3123 0.115927 0.0131162 19.3438 0.113947 0.0139779 19.3717
0.10852 0.0140084 19.3926 0.104351 0.0146603 19.4108 0.100685 0.0151025 19.4277 0.0972297
0.0151839 19.4435 0.0939723 0.0150931 19.4583 0.0909233 0.014939 19.4723 0.0880412 0.0147283
19.4852 0.0853559 0.0145636 19.5002 0.0827582 0.0142452 19.5093 0.0814181 0.0139659 20
0 0 19.9996 -0.000315381 0.000137348 19.9985 -0.000728949 0.000487276 19.9946 -0.00140374
0.0016983 19.9803 -0.0029792 0.00592861 19.9207 -0.00810704 0.0103255 19.9207 -0.00725284 0.00063793
19.8522 -0.01495 -0.0953029 19.7957 -0.018877 -0.0685417 19.961 -0.0468004 -1.01829 20.4407
-0.0618188 -0.919939 20.2189 -0.0484831 -0.499024 19.9345 -0.0525173 -0.632311 20.3032 -0.154409
0.444693 20.3035 -0.155264 0.448082 20.1 -0.235952 0.57178 19.9913 -0.221147 0.29073