# vtk DataFile Version 2.0
tracks
ASCII
DATASET POLYDATA
POINTS 2595 float
-1.001 -0.05 0.0011 -0.900789 -0.0500215 0.00109731 -0.800577 -0.050043 0.00109463 -0.700366 -0.0500644
0.00109196 -0.600155 -0.0500857 0.00108929 -0.499943 -0.0501071 0.00108663 -0.424945 -0.050111 0.00107895
-0.349947 -0.0501518 0.00106885 -0.274949 -0.0501922 0.00105884 -0.19995 -0.0502323 0.00104893 -0.124952
-0.050272 0.0010391 -0.0499538 -0.0502813 0.00103935 0.0250446 -0.05029 0.00104809 0.100043 -0.0502988
0.0010569 0.175041 -0.0503076 0.00106579 0.25004 -0.0503165 0.00107475 0.400037 -0.0503103 0.00109083
0.550035 -0.0503083 0.00110505 0.700032 -0.0503062 0.00111946 0.85003 -0.0503042 0.00113406 1.00003
-0.0503021 0.00114885 1.15003 -0.0503127 0.00115605 1.30002 -0.0503182 0.00116053 1.45002 -0.0503238
0.00116502 1.60002 -0.0503293 0.00116954 1.75002 -0.0503349 0.00117407 1.90002 -0.0503434 0.00117693
2.05002 -0.0503498 0.00117886 2.20001 -0.0503561 0.0011808 2.35001 -0.0503625 0.00118273 2.50001
-0.0503689 0.00118467 2.65001 -0.0503768 0.00118572 2.80001 -0.0503847 0.00118641 2.95001 -0.0503927
0.0011871 3.10001 -0.0504006 0.00118779 3.25001 -0.0504086 0.00118848 3.40001 -0.0504164 0.00118876
3.55001 -0.050425 0.00118933 3.70001 -0.0504337 0.00118991 3.85001 -0.0504424 0.00119049 4.00001
-0.0504511 0.00119106 4.15 -0.0504588 0.00119114 4.3 -0.0504683 0.00119181 4.45 -0.0504778
0.00119248 4.6 -0.0504872 0.00119315 4.75 -0.0504967 0.00119382 4.9 -0.0505043 0.00119381
5.05 -0.0505143 0.00119464 5.2 -0.0505242 0.00119547 5.35 -0.0505342 0.0011963 5.5
-0.0505442 0.00119713 5.65 -0.0505517 0.00119708 5.8 -0.0505619 0.00119807 5.95 -0.0505722
0.00119906 6.1 -0.0505825 0.00120005 6.25 -0.0505928 0.00120104 6.4 -0.0506002 0.00120097
6.55 -0.0506107 0.00120209 6.7 -0.0506212 0.00120321 6.85 -0.0506317 0.00120434 7
-0.0506422 0.00120546 7.15 -0.0506496 0.00120537 7.3 -0.0506602 0.0012066 7.45 -0.0506708
0.00120783 7.6 -0.0506815 0.00120907 7.75 -0.0506922 0.0012103 7.9 -0.0506995 0.0012102
8.05 -0.0507102 0.00121151 8.2 -0.050721 0.00121284 8.35 -0.0507317 0.00121416 8.5
-0.0507425 0.00121548 8.65 -0.0507497 0.00121537 8.8 -0.0507606 0.00121677 8.95 -0.0507714
0.00121816 9.1 -0.0507823 0.00121956 9.25 -0.0507932 0.00122096 9.4 -0.0508003 0.00122084
9.55 -0.0508569 0.00122295 9.7 -0.0509644 0.00122579 9.85 -0.0511229 0.00122935 10
-0.0513322 0.00123365 -1.001 -0.05 0.0537316 -0.900807 -0.0501056 0.0535765 -0.800614 -0.0502114
0.0533941 -0.700421 -0.0503406 0.0531781 -0.600229 -0.0505007 0.0529265 -0.500035 -0.0506915 0.0526396
-0.425004 -0.0509387 0.0524176 -0.349973 -0.051275 0.0521287 -0.274943 -0.0516585 0.051861 -0.199912
-0.0520755 0.0516355 -0.124879 -0.0524768 0.0514924 -0.0498864 -0.0527419 0.0515298 0.0251065 -0.0529606
0.0516957 0.100099 -0.0531744 0.05193 0.175092 -0.0533973 0.0522124 0.250087 -0.0536155 0.0525299
0.400077 -0.0539985 0.0531653 0.550067 -0.0543792 0.0536802 0.700057 -0.0547188 0.0541464 0.850047
-0.0550173 0.0545635 1.00003 -0.0552825 0.054931 1.14689 -0.0556484 0.0552095 1.29374 -0.0559827
0.0554692 1.4406 -0.0563144 0.0556953 1.58745 -0.0566435 0.0558876 1.70485 -0.0569045 0.0560143
1.71388 -0.0569254 0.0560228 1.72292 -0.0569463 0.0560311 1.73195 -0.0569674 0.0560394 1.74098
-0.0569886 0.0560475 1.75002 -0.0570098 0.0560556 1.90002 -0.0573645 0.0561889 2.05002 -0.0577147
0.0563049 2.20001 -0.0580612 0.0564033 2.35001 -0.0584037 0.056484 2.50001 -0.0587424 0.0565471
2.65001 -0.0590864 0.0565991 2.80001 -0.05943 0.0566443 2.95001 -0.0597727 0.0566819 3.10001
-0.0601146 0.0567117 3.25001 -0.0604557 0.0567339 3.40001 -0.0607979 0.056751 3.55001 -0.0611413
0.0567674 3.70001 -0.0614833 0.0567817 3.85001 -0.0618238 0.0567941 4.00001 -0.0621628 0.0568043
4.15 -0.0624998 0.0568122 4.3 -0.0628404 0.0568211 4.45 -0.0631795 0.0568292 4.6
-0.0635172 0.0568365 4.75 -0.0638534 0.0568431 4.9 -0.064185 0.0568475 5.05 -0.0645218
0.0568537 5.2 -0.0648572 0.0568596 5.35 -0.0651912 0.0568651 5.5 -0.0655239 0.0568701
5.65 -0.06585 0.0568727 5.8 -0.0661824 0.0568777 5.95 -0.0665135 0.0568826 6.1
-0.0668435 0.0568871 6.25 -0.0671722 0.0568915 6.4 -0.0674931 0.0568929 6.55 -0.067821
0.0568973 6.7 -0.0681477 0.0569015 6.85 -0.0684733 0.0569056 7 -0.0687977 0.0569095
7.15 -0.0691135 0.0569102 7.3 -0.0694368 0.0569142 7.45 -0.069759 0.0569181 7.6
-0.07008 0.0569218 7.75 -0.0703999 0.0569255 7.9 -0.0707107 0.0569256 8.05 -0.0710293
0.0569294 8.2 -0.0713469 0.0569331 8.35 -0.0716633 0.0569368 8.5 -0.0719786 0.0569405
8.65 -0.0722844 0.0569406 8.8 -0.0725984 0.0569443 8.95 -0.0729112 0.056948 9.1
-0.0732228 0.0569515 9.25 -0.0735333 0.0569549 9.4 -0.073834 0.0569545 9.55 -0.0741436
0.056958 9.7 -0.0744527 0.0569615 9.85 -0.0747612 0.056965 10 -0.0750693 0.0569684
-1.001 -0.05 0.106363 -0.900818 -0.0500775 0.106138 -0.800636 -0.0501528 0.105866 -0.700455
-0.0502546 0.105547 -0.600274 -0.0504264 0.105005 -0.50009 -0.050668 0.104244 -0.424996 -0.050954
0.10366 -0.349901 -0.0513011 0.103055 -0.274807 -0.0516525 0.10252 -0.199711 -0.0519493 0.102092
-0.124607 -0.0522901 0.101991 -0.0496046 -0.0525366 0.102105 0.0253975 -0.052728 0.102336 0.100399
-0.0529065 0.102648 0.175401 -0.0531053 0.103045 0.250411 -0.0533241 0.103527 0.400346 -0.0537272
0.104526 0.550283 -0.0541289 0.105398 0.70022 -0.0544918 0.106182 0.850157 -0.0548243 0.1068
1.00009 -0.0551261 0.10725 1.15007 -0.0555638 0.107515 1.30006 -0.0558575 0.107811 1.45005
-0.0561006 0.108087 1.60003 -0.0563378 0.108331 1.75002 -0.056569 0.108541 1.90002 -0.0568747
0.108686 2.05002 -0.0571165 0.108841 2.20001 -0.0573526 0.10898 2.35001 -0.0575861 0.109102
2.50001 -0.0578171 0.109207 2.65001 -0.0581051 0.109276 2.80001 -0.0583505 0.109344 2.95001
-0.0585948 0.109404 3.10001 -0.0588383 0.109456 3.25001 -0.0590812 0.109501 3.40001 -0.0593675
0.109536 3.55001 -0.0596169 0.109569 3.70001 -0.0598645 0.1096 3.85001 -0.0601105 0.10963
4 -0.060355 0.109657 4.15 -0.0606353 0.109683 4.3 -0.0608848 0.109704 4.45
-0.0611324 0.109724 4.6 -0.0613785 0.109744 4.75 -0.0616231 0.109763 4.9 -0.061897
0.109786 5.05 -0.0621446 0.109801 5.2 -0.0623905 0.109816 5.35 -0.062635 0.10983
5.5 -0.0628781 0.109844 5.65 -0.0631457 0.109865 5.8 -0.0633908 0.109876 5.95
-0.0636344 0.109886 6.1 -0.0638767 0.109897 6.25 -0.0641178 0.109907 6.4 -0.0643794
0.109926 6.55 -0.0646217 0.109934 6.7 -0.0648625 0.109942 6.85 -0.0651022 0.109949
7 -0.0653407 0.109957 7.15 -0.0655965 0.109975 7.3 -0.0658356 0.109981 7.45
-0.0660735 0.109986 7.6 -0.0663102 0.109992 7.75 -0.0665457 0.109997 7.9 -0.0667959
0.110014 8.05 -0.0670318 0.110018 8.2 -0.0672664 0.110022 8.35 -0.0675 0.110025
8.5 -0.0677324 0.110029 8.65 -0.0679771 0.110046 8.8 -0.0682095 0.110049 8.95
-0.0684407 0.110051 9.1 -0.0686707 0.110054 9.25 -0.0688995 0.110056 9.4 -0.0691386
0.110073 9.55 -0.0693678 0.110074 9.7 -0.0695964 0.110075 9.85 -0.0698245 0.110076
10 -0.0700521 0.110076 -1.001 -0.05 0.158995 -0.900796 -0.0500881 0.15877 -0.800593
-0.0501919 0.158424 -0.700392 -0.0503528 0.157688 -0.600196 -0.0505836 0.156477 -0.499992 -0.0508761
0.154638 -0.42472 -0.0514819 0.153036 -0.349437 -0.0519477 0.152118 -0.274149 -0.0523426 0.151558
-0.19886 -0.0527353 0.151267 -0.1237 -0.0530503 0.151324 -0.0487805 -0.0531713 0.151489 0.0261373
-0.0532472 0.15197 0.101053 -0.053384 0.152675 0.175968 -0.0535475 0.153473 0.250944 -0.0536984
0.1543 0.400784 -0.0539044 0.15572 0.550625 -0.0544054 0.156897 0.700468 -0.0548726 0.157651
0.850313 -0.0552666 0.158249 1.00014 -0.0556297 0.15868 1.15012 -0.0561295 0.158925 1.30009
-0.0564848 0.159203 1.45007 -0.0567475 0.159471 1.60005 -0.0569338 0.159725 1.75002 -0.0571143
0.159947 1.90002 -0.0573703 0.160102 2.05002 -0.0575619 0.160268 2.20002 -0.0577414 0.160419
2.35001 -0.0579122 0.160556 2.50001 -0.0580805 0.160675 2.65001 -0.0583063 0.160759 2.80001
-0.0584893 0.160841 2.95001 -0.0586702 0.160916 3.10001 -0.0588494 0.160984 3.25001 -0.059028
0.161045 3.40001 -0.0592501 0.161095 3.55001 -0.0594354 0.161144 3.70001 -0.059618 0.161191
3.85001 -0.0597984 0.161237 4 -0.0599772 0.161281 4.15 -0.0601918 0.161323 4.3
-0.0603757 0.161361 4.45 -0.0605571 0.161398 4.6 -0.0607363 0.161435 4.75 -0.0609141
0.161471 4.9 -0.0611208 0.16151 5.05 -0.0613016 0.161542 5.2 -0.0614802 0.161574
5.35 -0.0616568 0.161606 5.5 -0.0618321 0.161637 5.65 -0.0620314 0.161675 5.8
-0.0622087 0.161703 5.95 -0.062384 0.161731 6.1 -0.0625577 0.161758 6.25 -0.0627301
0.161785 6.4 -0.0629225 0.161822 6.55 -0.0630961 0.161847 6.7 -0.063268 0.161872
6.85 -0.0634382 0.161896 7 -0.0636073 0.161921 7.15 -0.0637932 0.161956 7.3
-0.063963 0.161979 7.45 -0.0641312 0.162001 7.6 -0.0642979 0.162023 7.75 -0.0644635
0.162045 7.9 -0.0646431 0.16208 8.05 -0.0648091 0.1621 8.2 -0.0649735 0.162121
8.35 -0.0651366 0.162142 8.5 -0.0652986 0.162162 8.65 -0.0654725 0.162196 8.8
-0.0656345 0.162216 8.95 -0.0657949 0.162235 9.1 -0.065954 0.162254 9.25 -0.0661119
0.162273 9.4 -0.0662796 0.162305 9.55 -0.0664378 0.162323 9.7 -0.0665952 0.162341
9.85 -0.0667519 0.162358 10 -0.0669081 0.162375 -1.001 -0.05 0.211626 -0.94763
-0.0500803 0.211469 -0.89426 -0.0501651 0.211279 -0.84089 -0.0502545 0.211054 -0.787521 -0.0503883
0.210764 -0.724305 -0.0506314 0.210285 -0.679429 -0.0509084 0.209635 -0.634558 -0.0512426 0.208757
-0.58969 -0.0515807 0.207742 -0.544826 -0.0519238 0.206589 -0.499928 -0.0522731 0.205297 -0.469399
-0.0525669 0.204243 -0.438871 -0.0528709 0.203126 -0.408339 -0.0531591 0.202137 -0.377803 -0.053433
0.201269 -0.329409 -0.0538516 0.200029 -0.288488 -0.0541896 0.199126 -0.247562 -0.0545274 0.19844
-0.206632 -0.0548693 0.198066 -0.1657 -0.0551755 0.197978 -0.124885 -0.0554071 0.198153 -0.0496129
-0.0557101 0.198867 0.0256569 -0.055844 0.199819 0.100922 -0.0559498 0.2011 0.176185 -0.0560889
0.20246 0.251487 -0.0562211 0.203613 0.251547 -0.0562212 0.203614 0.251606 -0.0562212 0.203615
0.251666 -0.0562213 0.203615 0.251725 -0.0562214 0.203616 0.251784 -0.0562215 0.203617 0.326482
-0.0563316 0.204595 0.40118 -0.0564439 0.205447 0.475881 -0.0565583 0.20617 0.550582 -0.0567011
[...]
POINT_DATA 2595
FIELD attributes 4
age 1 2595 float
0 0.00501121 0.0100224 0.0150336 0.0200448 0.025056 0.0288056 0.0325533 0.036301 0.0400487 0.0437965
0.0475449 0.0512905 0.0550361 0.0587817 0.0625272 0.070024 0.0775229 0.0850219 0.0925209 0.10002
0.10752 0.115019 0.122519 0.130019 0.137519 0.145019 0.152519 0.160019 0.167518 0.175018
0.182518 0.190018 0.197517 0.205017 0.212517 0.220017 0.227516 0.235016 0.242516 0.250015
0.257515 0.265015 0.272515 0.280015 0.287514 0.295014 0.302514 0.310014 0.317513 0.325013
0.332513 0.340013 0.347512 0.355012 0.362512 0.370012 0.377512 0.385011 0.392511 0.400011
0.407511 0.415011 0.42251 0.43001 0.43751 0.44501 0.45251 0.460009 0.467509 0.475009
0.482509 0.490009 0.497508 0.505008 0.512508 0.520008 0.527507 0.535005 0.542503 0.55
0 0.00502598 0.0100532 0.0150745 0.0200877 0.0250927 0.0288318 0.0325649 0.0362914 0.040011
0.0437244 0.0474306 0.0511298 0.0548273 0.0585247 0.0622238 0.0696346 0.0770707 0.0845215 0.0919872
0.0994674 0.106804 0.114142 0.121482 0.128822 0.134692 0.135143 0.135595 0.136047 0.136498
0.13695 0.144451 0.151951 0.15945 0.166949 0.174447 0.181945 0.189443 0.19694 0.204437
0.211934 0.219431 0.226928 0.234425 0.241922 0.249419 0.256917 0.264415 0.271912 0.27941
0.286907 0.294406 0.301904 0.309402 0.3169 0.324398 0.331897 0.339396 0.346894 0.354393
0.361891 0.369391 0.37689 0.384389 0.391888 0.399387 0.406887 0.414386 0.421886 0.429385
0.436885 0.444386 0.451886 0.459386 0.466886 0.474386 0.481887 0.489387 0.496888 0.504389
0.511889 0.519391 0.526892 0.534393 0.541894 0.549395 0 0.00502797 0.0100577 0.0150818
0.0200992 0.0251103 0.0288573 0.0325972 0.0363279 0.0400538 0.0437699 0.0474746 0.0511736 0.0548714
0.0585683 0.0622648 0.0696632 0.0770887 0.0845322 0.0919978 0.0994852 0.106988 0.114493 0.122
0.129508 0.137018 0.144533 0.152042 0.15955 0.167058 0.174565 0.182077 0.189583 0.197089
0.204594 0.212099 0.219611 0.227115 0.234621 0.242126 0.249631 0.257143 0.264648 0.272154
0.279659 0.287165 0.294678 0.302184 0.309689 0.317195 0.324701 0.332215 0.339721 0.347227
0.354733 0.36224 0.369753 0.37726 0.384766 0.392273 0.39978 0.407294 0.414801 0.422308
0.429815 0.437322 0.444837 0.452344 0.459851 0.467359 0.474866 0.482381 0.489889 0.497397
0.504905 0.512413 0.519928 0.527437 0.534945 0.542453 0.549961 0 0.00503008 0.0100662
0.0150994 0.0201268 0.0251493 0.0289149 0.0326688 0.0364107 0.0401423 0.043857 0.047552 0.0512415
0.05493 0.0586178 0.062309 0.0696962 0.0771197 0.0845737 0.0920442 0.0995358 0.107048 0.114561
0.122079 0.129602 0.137125 0.144654 0.152177 0.1597 0.167223 0.174745 0.182273 0.189794
0.197314 0.204835 0.212355 0.219882 0.227402 0.234922 0.242442 0.249963 0.25749 0.26501
0.272531 0.280052 0.287572 0.2951 0.302621 0.310142 0.317663 0.325185 0.332713 0.340234
0.347756 0.355277 0.362799 0.370328 0.377849 0.385371 0.392893 0.400415 0.407944 0.415466
0.422988 0.430511 0.438033 0.445563 0.453085 0.460608 0.468131 0.475654 0.483184 0.490707
0.49823 0.505753 0.513276 0.520807 0.52833 0.535854 0.543377 0.550901 0 0.00268281
0.0053673 0.00805348 0.010739 0.0139179 0.0161731 0.0184278 0.0206818 0.022935 0.025189 0.0267194
0.0282477 0.0297731 0.0312955 0.0337027 0.0357304 0.0377524 0.039769 0.04178 0.0437797 0.0474585
0.0511386 0.05482 0.058508 0.0622088 0.0622117 0.0622146 0.0622175 0.0622205 0.0622234 0.0659029
0.0695925 0.0732921 0.077002 0.080722 0.0813159 0.0819099 0.0825039 0.083098 0.0836775 0.0868328
0.0899907 0.0931511 0.0963142 0.0994792 0.107 0.114522 0.122048 0.12958 0.137116 0.14466
0.152196 0.159733 0.167269 0.174806 0.182348 0.189884 0.197419 0.204954 0.212488 0.22003
0.227564 0.235099 0.242634 0.250169 0.257711 0.265246 0.272781 0.280316 0.287851 0.295394
0.302929 0.310465 0.318 0.325536 0.333079 0.340615 0.348151 0.355687 0.363223 0.370767
0.378303 0.385839 0.393376 0.400912 0.408456 0.415993 0.42353 0.431067 0.438604 0.446148
0.453685 0.461222 0.46876 0.476297 0.483842 0.491379 0.498917 0.506455 0.513992 0.521538
0.529076 0.536614 0.544152 0.55169 0 0.00126444 0.00252926 0.00379476 0.00506105 0.00632818
0.0101157 0.0139115 0.0177189 0.021533 0.0253294 0.0269121 0.0284847 0.0300504 0.0316089 0.033006
0.0333311 0.0336558 0.0339802 0.0343044 0.0346284 0.0364566 0.0382777 0.0400898 0.0418967 0.0436942
0.0454947 0.0472998 0.0491169 0.050939 0.0527653 0.0529023 0.0530393 0.0531764 0.0533135 0.0534566
0.0551496 0.0568454 0.058544 0.0602456 0.0619498 0.0656457 0.0693584 0.0730891 0.0768305 0.0805809
0.0843443 0.088107 0.0918703 0.0956363 0.0994047 0.10694 0.114478 0.12202 0.129566 0.137116
0.144682 0.152234 0.159787 0.167339 0.174892 0.182452 0.190004 0.197555 0.205106 0.212657
0.220216 0.227766 0.235317 0.242868 0.250419 0.257978 0.265529 0.27308 0.280631 0.288183
0.295742 0.303293 0.310845 0.318397 0.325948 0.333508 0.34106 0.348612 0.356164 0.363716
0.371276 0.378828 0.38638 0.393932 0.401485 0.409045 0.416598 0.42415 0.431703 0.439256
0.446816 0.454369 0.461922 0.469475 0.477029 0.484589 0.492143 0.499696 0.507249 0.514803
0.522364 0.529917 0.537471 0.545024 0.552578 0 0.00126544 0.0025314 0.00379787 0.00506486
0.00633239 0.00822676 0.0101235 0.0120227 0.0139248 0.015829 0.0177464 0.0196687 0.021592 0.0235184
0.0254572 0.0264283 0.0273968 0.0283608 0.0293204 0.0302798 0.0307559 0.0312304 0.0317029 0.0321732
0.0326883 0.0331429 0.0335955 0.0340461 0.0344947 0.0349408 0.0358511 0.0367581 0.037661 0.0385598
0.0394496 0.0403387 0.0412263 0.0421133 0.0429999 0.0438871 0.0452124 0.0465441 0.0478827 0.0492269
0.0492297 0.04996 0.0506917 0.0514248 0.0521594 0.0528948 0.0547234 0.0565657 0.0584194 0.0602798
0.0621408 0.064012 0.0658842 0.0677585 0.0696354 0.0715164 0.0734048 0.0752876 0.0771667 0.0790477
0.0809337 0.0840374 0.0871451 0.0902544 0.0933652 0.0960041 0.0967883 0.0975726 0.098357 0.0991416
0.0999264 0.107519 0.115114 0.122713 0.130315 0.137922 0.145554 0.15316 0.160763 0.168365
0.175966 0.183587 0.191186 0.198784 0.206381 0.213979 0.221595 0.229192 0.236788 0.244384
0.25198 0.259595 0.267191 0.274786 0.282382 0.289978 0.297591 0.305187 0.312782 0.320377
0.327973 0.335584 0.343179 0.350774 0.358369 0.365964 0.373574 0.381169 0.388764 0.396358
0.403953 0.411562 0.419157 0.426751 0.434345 0.44194 0.449547 0.457142 0.464735 0.472329
0.479924 0.48753 0.495124 0.502717 0.510311 0.517904 0.525509 0.533103 0.540696 0.548289
0.555883 0 0.00126279 0.00252625 0.00379074 0.00505641 0.00632327 0.00823329 0.0101453 0.0120611
0.0139802 0.0159047 0.0178219 0.0197522 0.0216952 0.023651 0.0256293 0.0266292 0.02763 0.0286311
0.0296315 0.0306436 0.0308904 0.0311372 0.0313836 0.0316281 0.0318176 0.0325687 0.0333072 0.0340326
0.0347443 0.0354479 0.0358947 0.03634 0.0367837 0.0372259 0.0376622 0.0380995 0.038534 0.0389662
0.0393976 0.0398267 0.0402585 0.0406905 0.0411226 0.0415552 0.0419905 0.0424259 0.0428607 0.043296
0.0437322 0.0441706 0.0450473 0.0459334 0.0468301 0.0477377 0.0486624 0.049385 0.0501068 0.0508309
0.0515581 0.0524485 0.0526284 0.0528085 0.0529887 0.053169 0.0533495 0.0543032 0.0552553 0.0562096
0.0571675 0.0581274 0.0590961 0.0600641 0.0610332 0.0620052 0.0629789 0.0649473 0.0669107 0.0688689
0.0708314 0.0727768 0.0747082 0.0766545 0.0786162 0.0805825 0.0825532 0.0865143 0.0904671 0.094394
0.0983048 0.102219 0.110046 0.11784 0.125564 0.133229 0.140898 0.148596 0.156273 0.163945
0.171612 0.179278 0.186959 0.194623 0.202285 0.209945 0.217605 0.225279 0.232938 0.240595
0.248252 0.255908 0.263578 0.271234 0.278889 0.286543 0.294197 0.301863 0.309517 0.31717
0.324822 0.332474 0.340136 0.347788 0.355439 0.363089 0.370739 0.378398 0.386048 0.393696
0.401344 0.408992 0.416648 0.424296 0.431943 0.439589 0.447235 0.454888 0.462534 0.470179
0.477823 0.485467 0.493118 0.500762 0.508404 0.516047 0.523688 0.531336 0.538978 0.546619
0.55426 0.561901 0 0.00126441 0.00252947 0.00379518 0.00506154 0.00632914 0.00824619 0.0101656
0.0120884 0.0140174 0.0159587 0.0169287 0.0179017 0.0188778 0.0198571 0.0208396 0.0218272 0.022823
0.0238277 0.0248414 0.0258656 0.0263832 0.0269026 0.0274256 0.0279523 0.0284853 0.028775 0.0290661
0.0293595 0.0296556 0.0297536 0.0300542 0.0303561 0.0306589 0.0309615 0.0312724 0.0313698 0.0314673
0.0315649 0.0316627 0.031734 0.0317681 0.0318021 0.0318361 0.0318702 0.0319026 0.0320664 0.0322299
0.0323934 0.0325567 0.0327213 0.0328997 0.0330778 0.0332554 0.0334302 0.0335591 0.033665 0.0337704
0.0338752 0.033979 0.0340844 0.0341955 0.0343051 0.0344132 0.0345203 0.0346076 0.0346612 0.0347145
0.0347675 0.0348202 0.0348717 0.0349698 0.0350674 0.0351647 0.0352614 0.0353561 0.0354775 0.0355975
0.0357161 0.0358336 0.0360239 0.0361255 0.0362267 0.0363276 0.0364283 0.0365189 0.0366055 0.0366922
0.036779 0.0368657 0.0370242 0.0371462 0.0372681 0.0373897 0.0375112 0.037631 0.0378501 0.0380675
0.038285 0.0385032 0.0387179 0.0389363 0.0391541 0.0393723 0.0395909 0.0398093 0.0400307 0.0402503
0.0404702 0.0406903 0.0409112 0.0411319 0.041352 0.0415725 0.0417937 0.0420173 0.0422423 0.0424653
0.0426885 0.0429122 0.043137 0.0434782 0.043821 0.0441696 0.044524 0.044687 0.0448433 0.0449999
0.0451569 0.0453142 0.0454727 0.0459606 0.0464411 0.0469217 0.0473978 0.0478946 0.0484119 0.0489187
0.0494263 0.0499386 0.0504582 0.0505344 0.0506106 0.050687 0.0507637 0.0508386 0.0518416 0.0528871
0.0539769 0.0550269 0.0560888 0.0572916 0.0584721 0.0596539 0.0608417 0.0620294 0.0624463 0.0628621
0.0632778 0.0636937 0.0641651 0.0649526 0.0657323 0.0665089 0.0672875 0.0680649 0.068217 0.0683689
0.0685202 0.068671 0.06882 0.0698545 0.0708868 0.0719173 0.0729458 0.0739698 0.0751223 0.0762954
0.0774723 0.0786506 0.0798312 0.0813248 0.0828194 0.0843207 0.0858256 0.0877637 0.0884782 0.0891898
0.0898985 0.0906044 0.091307 0.0958126 0.100294 0.104701 0.109019 0.113205 0.121376 0.129485
0.137521 0.145486 0.15337 0.16113 0.168891 0.176648 0.184403 0.192156 0.199904 0.207652
0.215399 0.223143 0.230886 0.238478 0.246069 0.253659 0.261247 0.268981 0.2691 0.269218
0.269337 0.269455 0.269574 0.277307 0.285041 0.292775 0.300508 0.308242 0.315968 0.323701
0.331434 0.339168 0.346901 0.35462 0.362353 0.370086 0.377819 0.385552 0.393264 0.400996
0.408728 0.416461 0.424193 0.431899 0.439631 0.447362 0.455093 0.462825 0.470525 0.478256
0.485986 0.493717 0.501447 0.509142 0.516872 0.524601 0.532329 0.540058 0.547748 0.555475
0.563202 0.570929 0.578657 0 0.00125411 0.00250916 0.00376552 0.00502333 0.00628271 0.00821401
0.010148 0.0120848 0.0140286 0.0159868 0.0169595 0.0179361 0.0189167 0.0199013 0.0208901 0.0218846
0.0228898 0.0239067 0.0249354 0.0259771 0.0265057 0.0270375 0.0275761 0.0281214 0.0286757 0.0292412
0.0298145 0.0304007 0.0310009 0.0316277 0.0319466 0.0322654 0.0325849 0.0329055 0.0332405 0.0333105
0.0333804 0.0334503 0.0335203 0.0335775 0.0336556 0.0337321 0.0338078 0.0338827 0.0339455 0.0341167
0.0342846 0.0344492 0.0346104 0.0347769 0.0349197 0.0350597 0.0351971 0.0353312 0.0354506 0.0355707
0.0356903 0.0358093 0.0359268 0.0360384 0.0361559 0.0362702 0.0363816 0.0364924 0.0366388 0.0367455
0.0368521 0.0369585 0.0370646 0.0371621 0.037358 0.037554 0.0377531 0.037955 0.0383715 0.0386063
0.0388418 0.0390752 0.0393066 0.0395332 0.0399959 0.0404526 0.0409061 0.0413565 0.0418024 0.0422609
0.0427039 0.0431504 0.0436 0.0440528 0.0445281 0.0449973 0.0454772 0.0459619 0.0464547 0.0472834
0.0481306 0.0489904 0.0498639 0.0518119 0.0529393 0.0540672 0.0552188 0.056391 0.0575978 0.0588627
0.0601003 0.0613206 0.0625502 0.0637852 0.0646699 0.0655425 0.0664143 0.0672807 0.0684033 0.0687248
0.0690464 0.0693682 0.0696904 0.070013 0.0706846 0.0713565 0.0720293 0.0727032 0.0735074 0.0740566
0.0746056 0.0751543 0.0757019 0.0762466 0.0774925 0.0787422 0.0799996 0.081258 0.0825158 0.0850123
0.0875127 0.089982 0.0924079 0.0948056 0.0996441 0.104432 0.109081 0.113593 0.117951 0.121411
0.124859 0.128295 0.131718 0.135899 0.140614 0.14527 0.149869 0.154411 0.158896 0.166656
0.174425 0.182193 0.189959 0.197724 0.205468 0.213232 0.220995 0.228758 0.23652 0.244253
0.252014 0.259775 0.267536 0.275296 0.283021 0.29078 0.29854 0.306299 0.314059 0.321777
0.329535 0.337293 0.345052 0.352811 0.360522 0.368279 0.376036 0.383794 0.391551 0.399256
0.407012 0.414768 0.422524 0.43028 0.437979 0.445733 0.453488 0.461242 0.468997 0.476691
0.484443 0.492196 0.499949 0.507702 0.51539 0.523141 0.530892 0.538643 0.546394 0.554077
0.561824 0.569572 0.57732 0.585068 0 0.00125903 0.00251874 0.00377912 0.00504093 0.00630438
0.00823306 0.0101647 0.0120992 0.0140412 0.0159973 0.0169702 0.0179471 0.0189282 0.0199135 0.020903
0.0218975 0.0229026 0.0239193 0.0249478 0.0259893 0.0265184 0.0270502 0.0275879 0.0281322 0.0286859
0.0292488 0.0298195 0.0303996 0.0309923 0.0316146 0.0319308 0.0322476 0.0325648 0.032882 0.0332117
0.0334499 0.0336868 0.0339216 0.0341504 0.0342471 0.0343506 0.034453 0.0345543 0.0346546 0.0347574
0.0349589 0.0351534 0.0353414 0.0355234 0.0356782 0.0357569 0.0358353 0.035913 0.0359899 0.036065
0.0360682 0.0360713 0.0360745 0.0360777 0.0360808 0.0362237 0.0363652 0.0365054 0.0366442 0.0368466
0.0369222 0.0369978 0.0370733 0.0371487 0.0372202 0.0376777 0.0381406 0.0386171 0.0391014 0.0395153
0.0399769 0.0404276 0.0408768 0.0413283 0.0417882 0.0422643 0.0427308 0.0431937 0.043659 0.0441341
0.0446268 0.04511 0.0455875 0.0460702 0.046567 0.0476014 0.0486583 0.049727 0.0508156 0.0515691
0.0516436 0.0517179 0.0517922 0.0518664 0.0519407 0.0530711 0.0542265 0.0554097 0.0566163 0.0578429
0.0591205 0.0603734 0.0616053 0.0628534 0.0640954 0.06472 0.0653338 0.0659449 0.0665545 0.0671675
0.0677947 0.068412 0.0690197 0.0696291 0.0702445 0.0714968 0.072759 0.0740182 0.0752726 0.0765164
0.0772588 0.077994 0.0787306 0.079469 0.080293 0.0807911 0.0812894 0.0817883 0.0822883 0.0827833
0.0827845 0.0827857 0.0827869 0.0827881 0.0827893 0.0853034 0.0878021 0.0902856 0.0927099 0.0951042
0.0998684 0.104582 0.109185 0.113676 0.118024 0.124971 0.131829 0.138567 0.145189 0.159281
0.162997 0.166713 0.170428 0.174142 0.177935 0.181953 0.18597 0.189987 0.194004 0.19802
0.205759 0.213502 0.221245 0.228987 0.236728 0.244456 0.252197 0.259937 0.267678 0.275418
0.283138 0.290877 0.298617 0.306357 0.314096 0.321809 0.329548 0.337287 0.345026 0.352765
0.360472 0.36821 0.375948 0.383686 0.391424 0.399125 0.406862 0.414599 0.422336 0.430073
0.437768 0.445504 0.45324 0.460976 0.468712 0.476402 0.484136 0.491871 0.499606 0.50734
0.515025 0.522758 0.530491 0.538224 0.545957 0.553637 0.561367 0.569097 0.576828 0.584559
0 0.00127992 0.00256048 0.00384229 0.00512558 0.00641037 0.0083168 0.0102258 0.0121374 0.0140556
0.0159859 0.0169579 0.017933 0.0189115 0.0198934 0.0208788 0.021873 0.0228762 0.0238892 0.0249122
0.0259474 0.0263907 0.0268357 0.027284 0.0277358 0.0278591 0.0280075 0.0281562 0.0283049 0.0284537
0.0286028 0.0291462 0.0296939 0.0302488 0.0308125 0.0313972 0.0314724 0.0315477 0.0316229 0.0316982
0.0317635 0.0319806 0.0321975 0.0324144 0.0326311 0.0328513 0.0329315 0.0330117 0.0330918 0.0331717
0.0332408 0.0334515 0.0336613 0.03387 0.0340755 0.0342873 0.0343498 0.0344119 0.0344735 0.0345347
0.0345878 0.0345933 0.0345988 0.0346042 0.0346097 0.0346151 0.0348302 0.0350407 0.0352468 0.0354454
0.0356356 0.0356575 0.0356794 0.0357012 0.035723 0.0357452 0.0358469 0.0359476 0.0360473 0.0361482
0.0362925 0.0363862 0.0364793 0.0365717 0.0366632 0.0367523 0.0368567 0.0369604 0.0370636 0.0371669
0.0373162 0.0374146 0.0375129 0.0376111 0.0377102 0.0378069 0.0380188 0.0382289 0.0384384 0.0386472
0.0388593 0.0390794 0.0392949 0.039506 0.0397172 0.0399312 0.0401473 0.0403618 0.0405753 0.0407894
0.041006 0.0412271 0.0414447 0.041661 0.0418776 0.0420952 0.0423141 0.0425315 0.0427487 0.0429663
0.0431852 0.0436304 0.0440759 0.0445247 0.0449768 0.045437 0.045916 0.0463829 0.0468417 0.0473035
0.0477788 0.0482616 0.0487424 0.0492231 0.0497076 0.0502001 0.051217 0.0522395 0.0532736 0.0543611
0.0554663 0.0558296 0.0561933 0.0565581 0.0569246 0.0573115 0.0581039 0.0588958 0.0596873 0.0604827
0.0612861 0.0624863 0.0636619 0.064844 0.0660413 0.0672342 0.0684617 0.0696649 0.0708452 0.0720193
0.0731854 0.0736515 0.0741168 0.0745825 0.0750486 0.0755057 0.0758302 0.0761548 0.0764796 0.0768046
0.0771384 0.0775209 0.0779037 0.0782867 0.07867 0.0790534 0.0813996 0.0837477 0.0860953 0.0884126
0.0907019 0.0952116 0.0997736 0.104244 0.108569 0.112786 0.121095 0.129373 0.13759 0.145635
0.15351 0.161252 0.168992 0.17673 0.184464 0.192195 0.199922 0.20765 0.215375 0.223099
0.230821 0.238005 0.245188 0.252371 0.259552 0.266749 0.267281 0.267812 0.268344 0.268875
0.269407 0.27712 0.284834 0.292548 0.300263 0.307977 0.315683 0.323397 0.331111 0.338825
0.346539 0.354239 0.361953 0.369666 0.37738 0.385094 0.392788 0.400501 0.408214 0.415927
0.42364 0.43133 0.439042 0.446754 0.454466 0.462179 0.469863 0.477574 0.485285 0.492997
0.500708 0.508388 0.516098 0.523808 0.531519 0.539228 0.546903 0.554611 0.562319 0.570028
0.577737 0 0.00127753 0.00255577 0.00383512 0.00511575 0.00639767 0.00829924 0.0102028 0.0121091
0.0140203 0.0159396 0.0169038 0.0178698 0.0188378 0.019808 0.0207805 0.0217543 0.022733 0.0237171
0.0247057 0.0256981 0.0266889 0.027686 0.0286913 0.029692 0.0307005 0.0307759 0.0308514 0.0309269
0.0310021 0.0310716 0.0319937 0.0328963 0.0337785 0.0346394 0.0354979 0.0359459 0.0363916 0.0368352
0.0372778 0.0377149 0.0381535 0.0385896 0.0390249 0.0394596 0.0398884 0.0403215 0.0407547 0.0411883
0.0416222 0.0420566 0.0424928 0.042928 0.0433639 0.0438009 0.0442397 0.0451178 0.0460045 0.0468977
0.0477985 0.0487241 0.0496712 0.0506107 0.0515435 0.0524831 0.0534323 0.0541691 0.0549114 0.055656
0.0564023 0.0575526 0.0576995 0.0578464 0.0579935 0.0581406 0.0582878 0.0592717 0.0602552 0.061239
0.0622226 0.0632049 0.0652052 0.0671922 0.0691686 0.0711546 0.0731384 0.0750971 0.0770822 0.079082
0.0810857 0.0830912 0.0871035 0.0911333 0.0951314 0.0990841 0.103031 0.105939 0.108853 0.111774
0.114688 0.118127 0.123036 0.127918 0.132772 0.137601 0.142403 0.150112 0.157825 0.165535
0.173243 0.180948 0.188642 0.196342 0.204041 0.211739 0.219436 0.227122 0.234815 0.242508
0.250199 0.257889 0.265571 0.273259 0.280945 0.288631 0.296316 0.303995 0.311678 0.31936
0.327041 0.334722 0.342397 0.350075 0.357753 0.36543 0.373106 0.380779 0.388453 0.396127
0.4038 0.411472 0.419141 0.426812 0.434482 0.442151 0.449819 0.457486 0.465153 0.472819
0.480485 0.48815 0.495813 0.503477 0.51114 0.518803 0.526464 0.534124 0.541784 0.549444
0.557104 0.564763 0 0.00127409 0.0025488 0.00382396 0.00510035 0.00637796 0.00827386 0.0101719
0.0120722 0.0139756 0.015883 0.0177923 0.0197068 0.0216263 0.0235504 0.0254825 0.0264534 0.0274212
0.0283842 0.0293422 0.0299615 0.0309795 0.0319899 0.0329899 0.0339796 0.0349577 0.0358666 0.0367723
0.0376738 0.0385724 0.039462 0.0403527 0.0412419 0.0421299 0.043017 0.0439033 0.0456806 0.0474751
0.0492841 0.0511028 0.052938 0.0538098 0.054683 0.0555582 0.0564356 0.0578025 0.0586819 0.0595632
0.0604462 0.061331 0.0622172 0.0640928 0.0659713 0.0678525 0.0697364 0.0716223 0.0735178 0.0754055
0.0772942 0.0791843 0.0810755 0.0848716 0.0886668 0.0924665 0.0962707 0.100089 0.107788 0.11549
0.123146 0.130765 0.1384 0.146049 0.153695 0.16134 0.168983 0.176624 0.184271 0.191913
0.199554 0.207193 0.214831 0.222473 0.230111 0.237748 0.245384 0.253019 0.260657 0.268293
0.275927 0.283561 0.291194 0.29883 0.306463 0.314095 0.321726 0.329357 0.33699 0.344621
0.352251 0.35988 0.367509 0.37514 0.382769 0.390397 0.398024 0.405651 0.41328 0.420906
0.428532 0.436157 0.443782 0.451409 0.459034 0.466658 0.474281 0.481904 0.489529 0.497151
0.504774 0.512395 0.520016 0.527638 0.535259 0.542879 0.550498 0.558118 0 0.00127142
0.00254321 0.00381554 0.00508846 0.00636199 0.0101414 0.0139323 0.0177224 0.0215092 0.0252998 0.0257906
0.0262801 0.0267688 0.0272566 0.0276858 0.0290755 0.03046 0.0318394 0.0332136 0.0345853 0.0364264
0.0382581 0.0400729 0.0418836 0.0436893 0.0455005 0.0473091 0.0491191 0.0509378 0.0527678 0.054604
0.0564417 0.0582821 0.0601254 0.0619714 0.0656735 0.0693895 0.0731215 0.0768684 0.0806191 0.0843896
0.0881581 0.091927 0.0956978 0.0994711 0.107001 0.114529 0.122063 0.129611 0.137174 0.144752