# vtk DataFile Version 2.0
sampleSurface
ASCII
DATASET POLYDATA
POINTS 2021 float
-0.500032 0 0.11501 -0.499951 3.38813e-21 0.0392727 -0.789037 8.47033e-21 0.120673 -0.500013 -1.35525e-20
0.193965 1.00003 0 0.0485099 1.00003 0 0.0478584 0.475202 0 0.0353615
0.250044 1.41878e-20 0.0305359 0.2506 -5.42101e-20 0.117067 0.251301 0 0.203885 0.364989
0 0.203772 1.75002 0 0.113255 1.75002 0 0.0564279 2.50001 6.89146e-18
0.059229 2.21354 0 0.250758 2.50001 0 0.252875 3.25001 -3.47927e-17 0.0598775
3.25001 -1.69407e-21 0.253888 4.00001 5.60566e-18 0.0599857 4 0 0.253986 4.75
-1.79088e-17 0.0599988 4.75 8.47033e-22 0.253998 5.5 -2.79246e-17 0.0599999 5.5 -4.23516e-22
0.253999 6.25 1.01187e-17 0.06 6.25 0 0.254 7 2.93732e-17 0.06
7 0 0.254 7.75 -2.65294e-17 0.06 7.75 0 0.254 8.5
1.8923e-17 0.06 8.5 0 0.254 9.25 -2.88552e-17 0.06 9.25 -5.29396e-23
0.254 10 -2.64698e-23 0.254 10 0 0.06 -4.24997 0 0.0599042
-5 0 0.0599861 -5 0 0.253986 -4.24997 0 0.253912 -3.49995
0 0.0593815 -3.49994 0 0.253441 -2.74993 0 0.0570188 -2.74991 0
0.251316 -1.99991 0 0.0492276 -1.99987 0 0.242776 -1.24992 -1.69407e-21 0.03
-1.24985 1.23328e-17 0.222327 -1.24989 3.38813e-21 0.125756 -0.874924 2.08116e-17 0.03 -0.874929
0 0.122356 -0.124951 -8.47033e-22 0.03 -0.499941 0 0.03 -0.124922 -8.47033e-22
0.0385291 1.00021 0 0.231242 0.625368 0 0.203537 0.25004 -2.11758e-22 0.03
1.75003 0 0.247334 1.92873 1.69407e-21 0.441438 2.50001 0 0.447397 3.25
-1.69407e-21 0.447898 4 0 0.447986 4.75 0 0.447997 5.5 -4.23516e-22
0.447999 6.25 4.23516e-22 0.447999 7 0 0.448 7.75 -1.05879e-22 0.448
8.5 0 0.448 9.25 0 0.448 10 -2.64698e-23 0.448 -5
-8.47033e-22 0.447985 -4.24997 0 0.447919 -3.49993 0 0.4475 -2.74988 0
0.445609 -1.9998 6.77626e-21 0.437758 -1.24969 1.61411e-17 0.417681 -1.24976 -6.77626e-21 0.31973
-0.875161 7.70461e-18 0.216228 -0.875403 0 0.312476 -0.499924 -8.74138e-19 0.250039 -0.312433
0 0.250037 -0.312436 0 0.200025 -0.499924 0 0.200026 0.250062 3.38813e-21
0.24921 0.250039 -1.69407e-21 0.250046 0.250032 0 0.300069 0.437526 3.05948e-18 0.300066
0.625026 0 0.30005 1.00072 -8.23994e-18 0.326497 1.00196 0 0.423 1.75013
0 0.439575 1.75013 1.77877e-20 0.448245 1.00135 0 0.537141 1.00002 0
0.61834 1.74999 2.71051e-20 0.633055 2.49999 -3.38813e-21 0.641448 3.25 0 0.641907
4 -1.69407e-21 0.641985 4.75 -8.47033e-22 0.641996 5.5 -4.23516e-22 0.641998 6.25
0 0.641999 7 0 0.641999 7.75 0 0.642 8.5 5.29396e-23
0.642 9.25 -5.29396e-23 0.642 10 0 0.642 -5 0 0.641985
-4.24997 -1.69407e-21 0.641926 -3.49993 0 0.641557 -2.74988 0 0.639897 -1.99989
6.77626e-21 0.63382 -1.25099 2.55465e-18 0.614606 -1.25 -2.71051e-20 0.515981 -0.878244 0
0.50789 -0.875961 2.71051e-20 0.459694 -0.875609 0 0.410432 -0.498432 0 0.400603
-0.498071 -1.70762e-18 0.413126 -0.450805 0 0.413349 -0.45095 0 0.400955 0.250009
1.89735e-19 0.412703 0.25 2.71051e-20 0.425212 0.296872 1.00289e-18 0.425187 0.343754 -2.71051e-20
0.425153 0.343763 0 0.400146 0.250006 0 0.400175 1.00162 1.41488e-17 0.520353
-2 4.23516e-22 0.820145 -2.09502 -2.11758e-22 0.830091 -2 0 0.829497 -1.25123
0 0.813251 -1.25126 0 0.713737 -1.25101 6.77626e-21 0.62198 1.00059 0
0.714169 1.00094 0 0.809205 1.75018 0 0.82775 2.5 0 0.835521
3.25 0 0.835917 4 -1.69407e-21 0.835986 4.75 -8.47033e-22 0.835996 5.5
0 0.835998 6.25 0 0.835999 7 0 0.835999 7.75 0
0.836 8.5 0 0.836 9.25 0 0.836 10 0 0.836
-5 -8.47033e-22 0.835986 -4.24997 0 0.835935 -3.49995 0 0.835616 -2.74991
0 0.83419 -0.970118 0 0.703382 -0.87455 0 0.699864 -0.874264 -2.71051e-20
0.649852 -0.874033 -2.71051e-20 0.599873 -0.49698 0 0.599585 -0.497345 -9.21572e-19 0.612046
-0.450014 0 0.611892 -0.44938 2.71051e-20 0.599454 -2.00002 0 0.84097 -1.84639
-3.38813e-21 1.02215 -1.25185 0 1.01276 -0.896512 -3.38813e-21 0.900668 -0.908183 6.77626e-21
0.801076 -0.904022 -1.86347e-20 1.00093 0.624925 0 0.799916 0.249931 0 0.799891
0.249978 0 0.899916 0.249997 0 0.999939 0.999987 0 0.999957 1.75061
-2.1684e-19 1.02409 2.50003 0 1.0296 3.25 -1.69407e-21 1.02993 4 0
1.02999 4.75 0 1.03 5.5 0 1.03 6.25 2.11758e-22 1.03
7 0 1.03 7.75 0 1.03 8.5 5.29396e-23 1.03 9.25
0 1.03 10 0 1.03 -5 0 1.02999 -4.24998 0
1.02994 -3.49996 -8.47033e-22 1.02968 -2.74996 0 1.02849 -2.00026 0 1.02458
-0.87482 0 0.799893 -0.87491 0 0.899919 -0.49993 0 0.799862 -0.499958
7.6233e-19 0.849889 -0.312476 0 0.849885 -0.312472 0 0.799853 -1.25001 8.04681e-21
1.19601 -0.499979 5.29396e-23 1.10737 -0.731886 2.11758e-22 1.19997 -0.499981 0 1.19997
-0.124987 0 0.999933 -0.477759 -5.29396e-23 0.999933 -0.487556 -1.45584e-22 1.09995 0.250008
0 1.19997 1 0 1.19997 1.7507 0 1.22203 2.50003 -1.35525e-20
1.22368 3.25 0 1.22394 4 0 1.22399 4.75 4.23516e-22 1.224
5.5 0 1.224 6.25 2.11758e-22 1.224 7 0 1.224 7.75
1.05879e-22 1.224 8.5 0 1.224 9.25 0 1.224 10 2.64698e-23
1.224 -5 4.23516e-22 1.22399 -4.24999 -4.23516e-22 1.22395 -3.49998 0 1.22374
-2.75001 0 1.22279 -2.00077 0 1.21965 -1.24997 4.23516e-22 1.19997 -0.499969
-5.29396e-23 0.999933 -0.874942 0 0.999936 -0.499979 -1.32349e-23 1.09995 -2.75001 0
1.36967 -3.18711 4.23516e-22 1.41751 -2.75001 4.23516e-22 1.4171 -2.00072 3.38813e-21 1.29692
-2.00065 0 1.41474 -1.25823 6.35275e-21 1.40014 -0.980416 0 1.39998 -0.499986
0 1.39998 0.250009 0 1.39998 1 0 1.39998 1.75054 0
1.41682 2.50002 -1.35525e-20 1.41776 3.25 0 1.41796 4 4.23516e-22 1.41799
4.75 0 1.418 5.5 0 1.418 6.25 0 1.418 7
0 1.418 7.75 0 1.418 8.5 0 1.418 9.25 0
1.418 10 0 1.418 -5 0 1.41799 -4.24999 0 1.41797
-3.49999 -4.23516e-22 1.41781 -1.24998 0 1.39998 -2.80392 1.32349e-23 1.61143 -2.75
-1.32349e-23 1.6114 -2.0003 0 1.60983 -1.25396 2.64698e-23 1.60004 -1.12789 2.64698e-23
1.59999 -0.49999 1.05879e-22 1.59999 0.250008 0 1.59999 1.00001 4.23516e-22 1.59999
1.75038 0 1.61122 2.50002 0 1.61184 3.25 -4.23516e-22 1.61197 4
-4.23516e-22 1.61199 4.75 0 1.612 5.5 0 1.612 6.25 0
1.612 7 0 1.612 7.75 5.29396e-23 1.612 8.5 2.64698e-23 1.612
9.25 -1.32349e-23 1.612 10 -1.32349e-23 1.612 -5 0 1.61199 -4.24999
0 1.61198 -3.49999 0 1.61187 -1.24999 0 1.59999 -2.75 -1.32349e-23
1.63714 -2.64195 -2.11758e-22 1.80559 -2.00012 -8.47033e-22 1.80492 -1.25741 0 1.80004
-1.19082 -7.94093e-23 1.8 -0.499992 1.05879e-22 1.79999 0.250006 2.11758e-22 1.79999 1
0 1.8 1.75023 0 1.80561 2.50001 3.38813e-21 1.80592 3.25 0
1.80599 4 0 1.806 4.75 2.11758e-22 1.806 5.5 0 1.806
6.25 0 1.806 7 0 1.806 7.75 0 1.806 8.5
2.64698e-23 1.806 9.25 0 1.806 10 0 1.806 -5 0
1.806 -4.25 -2.11758e-22 1.80599 -3.49999 0 1.80594 -2.75 -1.05879e-22 1.8057
-1.24999 0 1.8 -2 -4.76456e-22 1.98532 -1.20969 -1.65436e-23 2 -0.499993
0 2 0.250006 0 2 1 0 2 1.75 0
2 2.5 0 2 3.25 0 2 4 0 2
4.75 -1.05879e-22 2 5.5 0 2 6.25 0 2 7
5.29396e-23 2 7.75 0 2 8.5 0 2 9.25 0
2 10 -1.32349e-23 2 -5 2.21817e-18 2 -4.25 1.05879e-22 2
-3.49999 0 2 -2.74999 0 2 -1.99999 -5.29396e-23 2 -1.24999
3.30872e-24 2 0.0956945 -5.42101e-20 0.203879 0.0632748 0 0.203876 0.0625511 0
0.250042 -0.403589 6.77626e-21 0.40138 -0.405779 7.7927e-19 0.38799 -0.406379 -6.77626e-21 0.375196
-0.499567 -1.35525e-20 0.375265 0.250006 -6.50521e-19 0.375144 0.156247 0 0.375155 0.156237
9.41901e-19 0.400212 0.203129 0 0.400201 0.249796 0 0.59991 0.249852 -1.0842e-19
0.587433 0.202953 0 0.587417 0.202888 6.50521e-19 0.599901 0.625121 -6.77626e-21 0.499953
0.717439 6.77626e-21 0.504955 0.625095 6.77626e-21 0.475379 0.343596 1.0842e-19 0.599918 0.343639
0 0.574939 0.296781 0 0.574964 0.249926 0 0.574977 0.62499 -4.2826e-18
0.549927 0.624917 4.55365e-18 0.599925 0.203133 0 0.412725 -0.449046 0 0.587135
-0.496581 5.42101e-20 0.587161 0.625036 -9.32414e-18 0.40006 0.625067 1.13164e-18 0.450032 0.249704
0 0.624881 0.155871 0 0.599866 0.155839 1.95156e-18 0.624853 0.249886 1.35525e-20
0.749873 0.062411 0 0.749846 0.0624478 -4.26227e-18 0.799869 -0.312472 0 0.749804
-0.499901 -3.38813e-21 0.749824 -0.691227 0 0.30453 -0.499912 3.02221e-18 0.300065 -0.875784
-3.11708e-18 0.361353 -0.592465 -2.71051e-20 0.40036 -0.499854 0 0.350135 -0.687111 1.35525e-20
0.350117 -0.68656 -2.71051e-20 0.40021 0.437526 -1.35525e-20 0.400108 0.437522 6.77626e-21 0.350086
0.250015 -2.51399e-18 0.35011 0.625027 3.38813e-21 0.350064 -0.592287 0 0.425286 -0.498048
0 0.425444 -0.873902 5.42101e-18 0.54992 -0.496663 0 0.574746 -0.591532 0
0.574798 -0.591729 0 0.599734 -0.149108 0 0.406489 -0.149477 -5.29396e-23 0.403592
-0.149678 0 0.406489 -0.451876 -2.1684e-18 0.499977 -0.451579 0 0.487563 -0.498366
0 0.487552 -0.498515 -1.0842e-19 0.499993 0.437553 0 0.450075 0.437532 -6.07153e-18
0.425113 0.254621 -1.25361e-19 0.496697 0.26485 -5.42101e-20 0.498023 0.264831 0 0.496529
0.254636 -2.30393e-19 0.49668 0.570241 0 0.499932 0.437665 -2.71051e-20 0.474991 0.437859
-2.71051e-20 0.49988 0.437372 -1.0842e-19 0.599915 0.249722 3.25261e-19 0.649874 0.43732 -5.42101e-20
0.649899 0.624872 0 0.649914 0.624883 -3.95734e-18 0.699913 0.43734 6.83047e-18 0.699894
0.249817 0 0.699869 -0.592227 0 0.624743 -0.498071 -2.71051e-20 0.624658 -0.499769
6.77626e-21 0.69979 -0.687025 0 0.699824 -0.150854 -1.03677e-18 0.599678 -0.151059 -6.77626e-21
0.605522 -0.127339 6.77626e-21 0.605681 -0.127867 0 0.599582 -0.406139 -4.40457e-20 0.699754
-0.406113 0 0.674749 -0.499634 0 0.674774 -0.18433 -4.23516e-22 0.674527 -0.163626
-4.23516e-22 0.678958 -0.165125 0 0.674537 -0.171868 4.23516e-22 0.674524 -0.14924 3.34737e-19
0.400169 -0.125737 0 0.400165 -0.12551 0 0.393854 -0.149076 -2.11758e-22 0.393877
-0.499925 -2.61564e-18 0.325088 -0.406241 0 0.325087 -0.4062 0 0.300069 -0.124901
0 0.300062 -0.218633 -3.27294e-18 0.299673 -0.218596 1.35525e-20 0.324664 -0.124851 0
0.325085 -0.126061 7.86047e-19 0.406473 -0.0785222 1.30782e-18 0.400166 -0.126118 3.38813e-21 0.41275
-0.0785648 0 0.412729 0.240678 1.0842e-18 0.500153 0.252614 -2.1684e-19 0.498317 0.252386
1.0842e-19 0.496231 0.241035 0 0.496114 0.228892 -1.35525e-20 0.496204 0.228835 6.77626e-21
0.498715 0.229819 2.71051e-20 0.500074 0.25248 0 0.499935 0.240657 -1.6263e-19 0.500957
0.264863 0 0.500154 0.264689 0 0.500951 0.437443 0 0.549896 0.437406
[...]
POINT_DATA 2021
FIELD attributes 2
p 1 2021 float
2.01383 1.44202 2.37302 4.36707 0.0576805 0.0555699 -4.20414 -6.04186 -7.69004 -6.16536 -4.32172
0.495537 0.463418 0.111426 0.3261 0.174549 0.00314553 0.0269377 0.00525328 0.0141504 0.00937381
0.0153258 0.00460308 0.00970497 -4.79439e-06 0.0043504 -0.00152586 0.00221175 -0.00116895 0.00206094 -0.000542696
0.0020982 0.000505379 0.00331819 0 0 0.615495 0.61104 0.610888 0.615209 0.636382
0.635485 0.706364 0.703231 0.928487 0.925186 1.64295 1.76443 1.77993 2.23877 2.47959
-4.0531 1.37195 -4.10587 0.64877 -0.113002 -6.03164 0.571292 0.441243 0.189118 0.0287887
0.006877 0.00903991 0.00523879 0.000790335 -0.000755294 -0.000356299 -0.000441534 0.00264985 0 0.610455
0.614439 0.63307 0.69419 0.904043 1.95824 2.03108 3.13096 3.87522 7.32808 -3.29343
-1.04587 4.58704 -5.72976 -5.72189 -2.2646 0.334807 0.823362 1.02745 0.923194 0.520057
0.515853 0.847432 0.880953 0.426106 0.16652 0.0225039 0.00185048 0.00607543 0.00397044 0.000154714
-0.00112805 -0.000532771 -0.000335421 0.00281614 0 0.609764 0.613248 0.629431 0.681493 0.863557
1.85186 2.13785 5.13635 5.59067 4.82821 32.5759 36.4606 52.0293 45.985 4.73956
4.88356 3.36788 3.40472 2.67164 4.07346 0.840501 0.809473 0.789 0.806757 1.39797
1.78709 1.84707 0.990971 0.481187 0.348874 0.127197 0.0133019 0.000269094 0.00674783 0.00595824
0.00243682 0.00106632 0.00141267 0.00201762 0.00346186 0 0.608888 0.611766 0.624996 0.666605
3.2532 3.75159 4.68387 4.76208 34.3578 32.696 44.6179 50.7594 0.802924 0.782591
0.941017 1.70348 2.62802 1.1431 0.0790122 -4.87707 -5.29936 -2.74782 -0.228813 0.190545
0.0729516 -0.00568937 -0.0110136 -0.0010537 0.000766837 -0.00129442 -0.00181035 -0.000895496 0.000245404 0.00123642
0 0.607918 0.610143 0.620165 0.650615 0.741567 2.74756 1.73323 5.18699 3.29188
0.555868 -0.679303 0.699075 0.311675 0.313711 0.143556 -1.70918 0.67362 0.282156 -0.97401
-0.393995 0.0975262 0.0644579 -0.00312244 -0.0110219 -0.00114801 0.00135392 -0.000462424 -0.000971702 -8.71886e-05
0.000998781 0.00152573 0 0.606952 0.608532 0.615315 0.634481 0.678069 0.693839 0.823644
1.15998 0.32515 0.623248 0.614533 0.619621 0.657807 0.626904 0.56782 0.384998 0.0603339
-0.564185 -0.37776 0.0458619 0.0589991 -0.00453262 -0.0152426 -0.00446968 -0.000849723 -0.00217582 -0.00243676
-0.00138187 -0.000177329 0.000421386 0 0.606088 0.607075 0.610891 0.567164 0.607844 0.607883
0.591816 0.496664 0.428083 0.0780153 -0.435137 -0.348875 -0.00125314 0.0477964 -0.00807192 -0.0188823
-0.00654779 -0.00183631 -0.00276346 -0.00283929 -0.00168348 -0.000415188 0.000250972 0 0.605409 0.605902
0.607346 0.496158 0.606903 0.596313 0.571492 0.459009 0.428653 0.0873668 -0.364873 -0.332943
-0.027726 0.0427317 -0.00846356 -0.0199633 -0.00730046 -0.00225029 -0.00307961 -0.00308984 -0.00188663 -0.000593783
0.00011578 0 0.604971 0.60512 0.605003 0.600492 0.457885 0.56522 0.426504 0.0904686
-0.342501 -0.327794 -0.0360042 0.0412091 -0.00855713 -0.0203815 -0.00766033 -0.00247935 -0.00323813 -0.00318583
-0.00194016 -0.000628482 0.000101349 7.59112e-05 0.604817 0.604838 0.60416 0.597972 0.56471 0.445587
-10.2837 -11.1412 -11.7917 70.4707 60.0509 43.8686 29.6738 2.92273 1.69911 4.40032
5.05011 4.14194 4.5583 6.19622 5.4099 2.02047 1.731 2.13473 2.95788 3.66856
3.3637 3.97189 2.24101 1.90806 6.02706 56.2486 39.4451 1.92732 2.25224 3.64322
4.75731 2.176 -4.52242 -11.1983 -9.83948 -3.19947 8.46119 7.00759 11.907 4.75185
17.4675 20.8218 9.14015 10.5201 2.56757 1.49131 0.992059 1.64935 19.7341 36.9182
5.61429 39.6455 20.331 18.8209 -58.8366 -58.612 -58.8335 68.4657 68.3787 47.5657
44.7999 3.38324 3.08778 -5.07024 0.30007 0.148613 -5.12007 2.58069 3.95612 3.92835
2.85233 1.83398 1.7519 1.62036 0.945301 0.755385 -1.35666 17.0064 28.1046 13.2936
7.27757 -56.5877 -56.3707 -58.818 -58.751 13.8688 19.1043 18.4818 -46.3075 -42.7441
-44.423 -45.1609 -58.3503 -57.6164 -57.5893 -57.7445 16.6143 15.8849 12.0075 -29.3715
-27.971 -45.3744 -37.0816 -58.9611 -46.0491 -58.7938 -48.182 11.0183 4.27847 10.5174
11.8715 9.10657 9.38381 9.67343 4.50037 11.1418 0.860924 0.690183 3.71452 3.46812
4.05337 4.31227 47.7581 68.3477 -58.8869 -56.5237 6.4954 11.1488 -51.4457 -52.7589
-58.4919 4.43935 6.28559 6.43521 6.46365 -31.4312 -40.0347 -49.4762 -29.8168 64.4122
60.7966 41.6605 41.4099 -44.0851 -56.0892 -11.5267 -8.58572 -0.443799 -24.5424 -42.4808
42.9857 44.3117 64.3081 66.48 -51.7806 -49.9355 -50.7218 0.332891 -9.64099 -12.6867
-11.6779 -21.6595 -24.8421 -57.868 44.0446 21.856 22.1495 11.7052 12.0222 12.1951
13.1464 22.0261 44.508 10.7991 12.4623 11.903 13.2432 -58.7713 -58.7607 -58.2319
-58.2192 -57.579 -56.9601 -56.5983 45.8238 66.8347 -58.4297 -58.6806 -59.0821 -58.3377
-29.832 -35.0614 -32.7663 -13.7182 -1.58655 -4.90339 -50.653 -50.3116 -58.1127 -13.1172
0.137565 0.0593589 -13.3472 -58.3849 -56.8873 -51.3405 -12.4641 -10.1976 -3.69456 1.56011
-7.33122 -5.54995 -18.5755 -38.3395 -41.4467 -36.3273 -52.2405 -53.2656 -53.0031 -4.05884
-17.4678 -18.2165 -4.67357 -56.1269 -51.991 -56.1472 -3.50459 -9.21471 -16.5175 -11.6235
67.5331 46.8715 -54.3145 -54.4756 -56.8735 -56.7546 -56.2763 -53.8004 -57.1642 -53.1949
-56.0409 -59.0483 -59.1764 -59.2204 -32.2185 -77.18 -96.2207 -101.2 -103.545 -103.112
-48.7805 -50.223 -54.2666 -48.2789 -50.022 -98.1893 -99.4528 -71.3044 -34.35 -58.5541
-59.3676 -59.0457 -56.3639 -57.2486 -57.3451 -57.27 -57.6711 7.11007 6.03825 8.92227
-56.1064 -55.8163 -56.0304 -55.5142 -55.6299 -55.9311 -56.3462 -55.212 -55.1961 2.00714
1.80467 0.680303 1.17768 4.24192 4.60942 1.38163 -55.937 -56.3951 -57.0504 5.76883
6.60433 2.75627 0.848677 3.11011 -32.0831 -38.1084 -37.3802 -31.7091 -54.63 -55.1132
-58.0185 -57.7102 -55.0469 -55.8808 -38.9772 -43.3367 -43.1236 -36.9677 -46.088 -50.1369
-53.3065 -53.4558 -52.2742 123.569 131.426 146.773 146.861 -58.2258 -56.2735 -56.5576
-57.9192 -57.7748 4.43974 2.16943 3.05456 4.63921 -9.71935 -3.90257 -5.8696 -8.90932
-11.7932 -39.1354 -36.8987 -25.5823 -27.3458 -32.167 -39.1575 -24.89 -24.8951 31.0865
41.2608 52.1064 37.9239 23.0705 19.1816 34.202 26.1048 0.668754 0.826913 1.98692
34.0606 24.8948 17.0588 22.1025 2.86489 3.79598 4.45248 4.56757 3.73008 6.67625
6.78962 4.64059 -9.37396 -8.26452 -1.38178 -10.2466 14.6872 9.14807 10.8235 -54.6734
-56.9013 -57.0321 -54.8684 -82.7171 -81.4355 -84.6782 -47.9437 -12.7275 -18.3554 -27.665
-56.0397 -52.8594 -55.401 -56.4857 -74.067 -73.7926 -58.4598 -59.7196 -49.6036 -47.9833
-50.2374 -50.425 3.73943 3.79717 -0.650147 5.99146 5.64593 4.65765 5.32897 5.72382
6.13504 -54.1258 -53.6848 -68.8139 -68.0277 78.996 94.0861 85.6816 112.102 106.409
88.8352 90.153 161.845 164.174 153.353 121.627 98.4093 104.35 97.3036 117.639
-12.893 -26.9574 -31.2819 -5.85292 -26.1402 -52.1052 -41.7397 -6.32763 93.7052 101.206
86.7936 78.2613 96.693 88.3872 107.593 148.451 158.207 167.398 165.137 106.622
102.897 159.622 -32.5854 -7.95131 -38.2805 -28.4837 -47.6892 140.206 140.076 115.601
110.581 110.243 115.506 139.6 138.983 108.132 167.227 170.831 172.004 172.294
173.707 186.644 186.833 174.813 173.266 -33.0028 -40.1368 -32.9555 -56.5058 -50.8691
-42.6922 -41.9489 -40.6804 -25.5754 2.77286 -2.58689 -0.643675 173.385 175.329 187.185
172.357 186.501 187.145 175.217 172.162 179.59 181.754 170.104 168.872 179.888
167.873 171.089 182.413 -52.6522 -37.815 -36.5592 -55.7979 -55.8238 -55.9472 -36.3605
-46.2294 -36.4689 -36.9559 -45.8489 -45.8152 -3.34349 -9.20113 -25.0797 -25.1273 -32.9324
-43.577 -32.9439 -32.632 -42.9936 -21.1922 -18.9208 -20.6357 115.417 140.136 138.12
139.03 114.674 109.302 170.029 169.904 170.472 167.735 136.392 108.391 113.569
137.144 -57.2305 -54.3059 -52.9433 -52.7739 -55.7803 -46.1646 90.0967 93.3432 78.5551
-15.0711 -6.34235 -6.87509 -21.0034 54.4765 56.3355 69.947 73.6149 -55.9351 -55.1636
-55.4649 -55.9292 -57.1072 -57.3444 -57.4877 -57.602 -56.2725 -56.3882 -56.0034 -56.0915
-135.257 -109.596 -78.0255 -95.7684 -98.1361 -99.2246 -99.2168 -83.3052 -78.9778 -92.539
-70.7848 -85.8639 -133.398 -136.833 -128.656 -96.1887 -96.9908 -54.9094 -54.3741 -55.0932
-56.1709 -56.4629 -53.9962 -53.9283 6.77968 7.30019 13.7067 16.329 13.8016 -50.9983
-50.2861 -45.8134 -46.029 -46.2834 -46.084 -46.0574 -45.8401 12.9675 12.6995 16.9227
8.2792 8.08731 9.65052 10.1326 10.1561 8.50725 7.32351 8.09201 12.4204 15.7535
13.752 0.812431 -0.829896 -3.02091 7.03187 6.20754 5.08529 6.43574 7.14079 -52.521
-53.4206 -56.4076 -55.7088 -48.668 -49.6654 13.5943 15.5574 16.9557 -46.9367 -49.8145
-49.947 -46.6556 -45.822 11.3597 11.0998 11.1427 9.55468 6.84146 -7.07478 -5.828
5.4749 6.28669 6.2577 -48.5438 -48.9014 146.469 148.492 140.903 136.947 113.304
118.277 125.689 121.155 184.603 185.878 182.179 178.421 -55.8163 -55.7473 -53.1198
-53.0298 169.633 183.354 185.052 172.99 174.447 186.567 171.025 182.138 169.62
179.272 -16.8715 -19.1857 -23.9417 -28.2643 -26.8431 -22.9723 -8.74596 -3.41784 -3.84291
-9.03532 -14.0656 -13.7173 -1.03019 -9.06262 -9.93229 -15.0162 -18.15 -8.21466 -8.9689
-24.9597 -20.2278 -9.66112 -0.783801 -3.0533 6.05137 -3.4801 6.03415 6.79469 3.35794
3.89566 4.61662 4.18032 7.69398 6.06981 3.91507 5.77206 -18.9179 -16.0089 -26.3405
-21.482 -56.4957 -58.2355 -58.8439 -58.7088 2.98771 3.0584 5.01271 5.50111 4.25137
4.84986 -14.5599 -40.2969 -57.2525 -65.4692 -53.2571 -31.9063 -59.0261 10.7171 10.1724
10.1955 -2.53573 0.128755 12.008 17.2966 9.51173 23.7257 20.6245 10.4314 1.60369
6.81391 8.31616 13.1377 11.5636 6.7724 -53.4998 -44.049 -49.9421 -13.1254 -43.9687
-25.0408 -60.6993 -83.8306 108.625 92.6556 106.163 108.307 112.707 111.829 172.881
172.004 173.255 172.571 171.273 185.96 185.961 185.196 -58.0887 -58.3057 174.48
-56.2734 -56.2714 -57.1937 -57.3603 -57.0618 -56.0327 -150.612 -137.493 -137.353 -134.122
-158.27 -137.236 -132.779 -133.102 -119.702 -115.186 -80.5719 -73.1766 -73.5062 -70.9013
-119.468 -121.189 -56.8453 -55.8284 -54.7326 -57.2114 9.48424 7.13187 10.6552 8.20412
10.9808 12.0029 12.3799 13.3308 14.1238 -55.334 -54.4089 -56.414 -55.2198 -53.2649
-53.0009 -53.1158 -55.0477 -6.02874 -0.505211 -1.4563 -4.64659 9.1792 9.56094 6.79385
5.82166 7.53419 9.5315 8.7679 6.67845 1.34977 8.17671 7.08077 6.91458 8.64633
10.3689 9.18535 12.0125 11.2972 -54.8079 -55.2281 -55.2718 -55.399 -55.5515 -55.4018
-54.8956 -52.917 -54.2306 -54.2391 -54.2543 -51.1843 -52.5855 -73.882 -73.0883 -57.7178
-60.0327 -77.6745 -68.5093 -77.79 -124.342 -128.971 -136.594 -79.625 -97.6903 -107.631
-80.4812 -99.0485 128.734 113.566 148.504 151.73 -54.7222 -53.95 -55.0623 -55.0469
-53.2397 143.886 167.872 146.146 -49.1399 -48.3031 -48.7413 -49.5159 -49.322 -49.3398
-49.2669 -47.7794 -8.0815 -9.37928 -11.9296 -11.0314 -14.8589 -17.0604 -19.2182 -16.9872
-17.9251 74.8009 85.4924 -58.7145 51.1867 76.5135 64.9897 75.4697 60.9312 13.6085
10.5843 45.4402 36.4637 8.3596 9.19518 3.62934 5.29924 5.10794 7.80819 6.71796
7.08772 7.47115 8.28279 -52.8866 -52.4427 -52.153 -52.7368 -1.0622 -0.553462 -1.13351
2.24504 5.69585 5.13749 7.08842 6.52112 -51.0661 -51.4884 -51.219 138.185 136.26
171.186 184.777 189.082 189.368 186.859 185.336 -55.8697 -55.5742 -55.8966 -55.7209
-53.2564 -45.7614 -46.5792 -47.1951 -46.4076 -46.7359 -48.0211 -56.1389 -56.1637 -56.7574
-57.4169 -57.1228 -57.1074 -57.2652 -56.884 -55.2555 -116.03 -111.62 -135.548 -112.187
-134.276 -122.392 -123.879 -133.764 -56.2408 -57.5723 -55.9994 -54.7406 13.6713 12.3052
11.288 12.4612 12.6841 13.3236 -36.8544 -36.357 -31.5623 -30.9987 -41.8443 -42.3992
-46.5772 -46.1748 -51.2211 -51.271 -45.6717 -52.2786 -51.9187 -6.23254 -0.971525 -11.5218
0.571395 2.01832 7.98007 7.51186 7.8412 4.22812 10.6764 7.317 8.7386 10.2555
10.8989 10.7902 10.9327 12.698 12.3697 2.29352 12.44 14.8332 16.0135 3.86334
3.36899 3.10778 3.79168 -59.0777 -58.2107 -53.0538 -56.6515 -44.7916 -44.2377 -40.1982
-44.5647 -45.9987 -50.0508 -51.2831 -49.6818 -49.9162 -49.6632 -47.2249 -52.3327 -47.3561
4.17074 -48.3657 -49.6778 140.979 131.782 129.387 129.424 129.805 114.313 106.881
188.659 188.132 187.137 -50.7753 -51.1093 -1.36347 -0.797779 0.237789 -29.7115 -30.6107
186.052 186.888 180.365 183.324 181.869 181.499 -33.2732 -29.1119 -3.12376 -7.78538
-5.89678 -3.17017 -24.8194 -13.6581 -10.2299 -13.4309 -19.8844 -4.5787 80.8619 56.517
60.8459 21.0709 21.436 68.015 110.704 10.1269 7.17323 -2.2984 -2.55173 6.81429
7.6122 7.90576 6.08213 6.53897 24.525 16.2794 -0.456859 19.7342 -1.81278 3.46297
8.15916 8.08281 68.0188 110.206 -54.8146 -55.9023 18.0953 91.4038 108.941 100.36
92.3945 108.02 109.14 126.56 134.296 143.175 -55.931 81.4058 73.362 50.156
12.4674 18.5246 16.6968 -75.7035 -56.9283 -56.9217 -56.9249 -55.3445 -55.2691 -59.9915
-55.5257 -59.9527 -60.547 23.4092 -6.54166 5.95525 10.5659 10.8021 -1.47749 -1.58531
-2.70684 -55.6817 -54.2389 -1.05088 2.50513 2.81474 -57.6335 -57.0702 -56.2123 7.92744
7.62259 4.07019 -56.7226 41.615 49.4195 -67.1554 -59.3366 17.1592 14.6784 8.99386
6.90022 5.06435 8.52013 6.95739 -54.2359 -54.1917 -53.0275 -52.9617 -55.8452 -52.2889
-51.8208 -54.4979 -54.8034 -54.7972 -54.2834 -55.3762 -54.9449 -54.8043 -54.5464 4.47678
-51.8112 -57.8788 -56.8485 100.512 129.133 144.707 155.166 168.087 162.916 160.728
148.733 188.24 -52.9152 -53.8607 -51.9445 -7.38927 -10.4252 -3.24644 -49.8305 -49.858
-49.8219 -50.0921 -53.2596 -47.3874 -48.907 -47.6798 -47.2029 -47.9012 28.7563 20.1797
-112.54 -120.159 -120.022 -120.664 -121.011 -73.9694 -96.5644 -73.9727 13.3495 16.9881
-11.0049 12.0753 11.5174 -5.50151 -7.08815 4.11382 2.48857 0.986307 0.621234 -0.658716
-2.26936 -1.00798 4.13732 4.50069 0.559839 2.81406 4.47482 2.39043 1.30114 13.2754
17.5884 -50.1845 5.49212 12.7692 8.48696 16.5142 8.44367 11.1753 14.2135 15.9946
4.77691 4.97677 6.45577 5.87863 -2.15486 -4.08687 -6.35367 -6.25508 4.83673 1.59411
4.32581 9.44451 15.3714 16.5814 8.23273 5.62199 2.97994 2.6683 7.15422 10.6623
11.3252 11.9726 11.1021 5.66151 -3.64955 5.53537 -2.88623 3.14481 -3.65882 2.38419
11.0175 8.33954 12.3988 6.96094 9.48316 11.4069 10.7918 10.4908 7.92574 8.63737
9.16124 9.40964 7.8823 7.34095 7.36272 5.9855 -5.55309 -9.07789 -7.29467 6.46366
5.87177 7.95814 6.22383 -9.30996 -11.0789 1.01528 7.02904 5.84385 -1.7559 5.63262
-137.647 -138.175 -138.305 10.2532 -55.6764 -54.6395 -54.6963 5.22118 9.9192 5.28664
8.37934 10.9637 -55.8349 -55.7938 -55.1805 -54.8819 -61.0454 -60.561 -61.0569 -69.0774
-116.251 -120.157 -113.93 -120.886 -49.088 -49.6138 -47.588 -47.2902 -47.5501 -47.2669
-14.6813 -14.6805 -17.1047 -52.6944 -52.51 -52.2684 5.12613 1.48634 4.96914 4.94178
-52.0674 -52.4982 -52.6248 141.735 151.092 -55.3708 -50.7642 13.3196 13.9062 11.6036
7.16939 11.4817 18.7823 4.19338 3.3117 4.65625 3.65485 -53.353 -57.3024 -57.1008
-55.3468 7.75947 15.1148 11.1311 4.0866 4.24014 10.097 8.84494 9.53716 8.64208
10.4259 12.4548 10.2961 5.82432 8.57055 8.22429 -54.2317 -50.2733 -48.6542 91.1956
80.2165 84.1906 66.7008 72.6893 -4.80287 -2.92644 0.315683 -1.45434 7.6123 8.12729
7.66549 8.25806 8.01378 7.5059 7.05345 116.812 106.781 94.7388 -73.8974 -57.3478
-56.0709 -54.9269 -54.7698 -54.3825 -54.3616 163.48 139.762 161.889 161.998 7.65003
4.52769 10.6399 11.3428 7.18841 8.52765 7.41548 6.89113 6.14436 2.73425 -2.41613
4.73742 5.3769 5.95924 4.36535 6.67291 14.4801 9.0575 -12.9387 15.6664 14.3137
7.63479 10.7491 16.0056 9.14962 -12.7846 -13.7131 -11.776 -2.91319 -4.96765 -13.2834
7.23951 5.25078 -14.8315 -16.4523 7.15771 4.84259 -1.07848 -4.00071 -55.1061 -46.078
13.0926 1.92778 0.247167 -0.150116 5.96501 5.52181 6.44984 6.04359 6.00065 5.59035
0.291856 6.27985 6.92141 -0.451791 5.72409 4.74488 7.19764 6.68379 6.10764 106.166
86.6261 121.992 123.775 5.18504 4.91032 3.43783 -55.323 5.11463 6.11033 5.88709
-9.55712 -12.5239 -0.197232 6.261 6.75729 5.38476 8.06268 5.19756 6.88175 3.88087
36.8326 -53.2906 -55.225 -54.7263 -54.6891 -54.7569 -2.89462 -4.27624 -12.6841 -12.5527
-12.575 -3.53065 9.39226 3.07341 5.95251 7.07716 2.56754 2.34581 0.0591037 -0.919481
-10.9866 -5.27459 -4.17229 -11.3674 -4.23869 -12.2463 5.57312 -11.4843 -12.5103 -2.50808
1.20372 6.3628 6.37326 5.8001 8.89677 0.238214 6.67648 -3.10401 -1.10724 4.37419
-0.78134 7.25164 4.87511 -9.87269 9.03243 -0.650682 6.15244 1.03803 1.43266 4.81152
5.16539 4.25667 4.96976 3.07801 7.67477 8.9188 5.4632 6.08484 0.960454 3.46291
11.1272 5.52404 0.806076 -0.554076 3.61384 173.146 176.972 176.109 181.023 169.122
168.09 172.67 179.944 180.936 69.3096 73.5289 54.6441 -56.2288 -41.5479 -38.6553
-36.9399 -31.0334 -43.8688 -52.032 -51.6879 -55.401 -46.827 100.73 154.458 162.1
155.241 146.968 -56.7242 -56.3195 -56.6533 -56.4267 -55.9187 -56.3873 -54.9817 -55.2882
-55.1275 3.99839 -0.286629 171.239 -18.4163 186.016 190.263 189.41 -51.3662 -47.328
182.749 185.879 186.055 -16.3222 -51.2305 85.2455 -55.0712 -55.2018 -55.4608 -55.4252
-49.5571 189.383 -2.37668 189.501 185.522 189.096 7.36531 -64.3275 110.557 109.862
-55.9637 4.66531 -51.8265 -53.1503 -51.9419 -138.564 138.709 -54.9198 159.191 -52.066
-121.092 -121.009 72.2183 6.96224 2.59064 168.074 164.688 -15.4312 139.848 191.106
190.001 185.402 189.453 190.79 189.786 172.797 191.161 186.782 189.956 191.196
0.615511 0.611046 0.636371 0.705495 0.919446 1.62352 2.20986 -3.98155 1.35898 0.0229595
-4.0992 -5.86769 0.408355 0.0900086 -0.00186191 0.00505273 0.0100996 0.00545196 0.000825069 -0.000748983
-0.000451617 0.000116086 0.00106024 0.000590161 -54.2297 -52.5161 -134.411 -134.969 -48.1185 -48.576
-49.24 -47.9588 -48.4591 -49.1667 -49.8202 -47.4626 -95.1289 -74.7527 -48.958 -47.318
-74.1922 -48.8816 -51.3444 -51.6944 -50.8189 -99.6972 -111.428 -129.892 -120.155 -119.973

U 3 2021 float
20.0061 -0.0459652 -0.215496 20.0437 -0.0309289 -0.0739104 19.9291 -0.00654378 -0.0963958 19.9356 -0.0560848
-0.605972 20.0176 -0.0598606 0.0399293 20.0179 -0.0597545 0.0399616 20.168 -0.0788021 0.0574468
20.2327 -0.0870059 0.0654654 20.2781 -0.0920268 0.148967 20.291 -0.11723 0.263199 20.21
-0.1185 0.208176 19.9544 -0.0477156 0.0198747 19.9967 -0.0551959 0.0183706 20.0037 -0.0534823
0.00699068 19.8524 -0.0248139 0.0176968 19.8511 -0.0215679 0.0141578 20.0059 -0.0531883 0.00190383
19.8535 -0.0201412 0.00968233 20.0043 -0.0523591 0.000521989 19.8526 -0.018463 0.00879184 20.0026
-0.051532 -1.08436e-05 19.8512 -0.016895 0.00849993 20.001 -0.0507673 -0.000292044 19.8501 -0.0155476
0.00827437 19.9995 -0.0500792 -0.000474998 19.849 -0.0143755 0.00806344 19.9979 -0.0494198 -0.000603573
19.8479 -0.013308 0.00787633 19.9961 -0.0487718 -0.000704057 19.8468 -0.0123371 0.00767741 19.9945
-0.0481391 -0.000741697 19.8458 -0.0114492 0.00758659 19.9925 -0.0474869 -0.000834321 19.8448 -0.0105156
0.0073059 19.8443 -0.0100286 0.00700353 19.9922 -0.0472803 -0.000875085 19.9996 -0.000343523 3.13098e-05
20 0 0 20 0 0 19.9996 -0.000343631 7.87974e-05 19.9983
-0.000792971 9.39281e-05 19.9984 -0.000802785 0.000278958 19.9942 -0.00156133 0.000368074 19.9941 -0.00152619
0.00100009 19.9788 -0.00282158 0.000334833 19.9796 -0.00314448 0.00357646 19.9465 -0.00550924 -0.00905687
19.9363 -0.00626861 -0.00796459 19.9389 0.00222229 -0.0143205 19.9277 -0.00551732 -0.029497 19.9062
0.00516402 -0.0609836 20.233 -0.07313 0.00184752 20.0483 -0.0290884 -0.0565693 20.2351 -0.0722157
0.00512049 19.927 -0.0900277 0.0306236 20.025 -0.119632 0.0819059 20.2324 -0.0869741 0.0649481
19.8544 -0.0300646 0.0234218 19.3061 0.120862 0.00991314 19.3382 0.118289 0.0110471 19.3663
0.112537 0.0111231 19.3875 0.108244 0.0118283 19.4058 0.104456 0.0123512 19.4229 0.100854
0.0125441 19.4389 0.097445 0.0125631 19.454 0.094233 0.0125013 19.4683 0.0911705 0.01237
19.4815 0.0882788 0.0122631 19.4962 0.0854446 0.0119861 19.505 0.0839802 0.0117287 20
0 0 19.9996 -0.000344253 0.000137515 19.9985 -0.000801418 0.000490707 19.9946 -0.00153244
0.0017197 19.9801 -0.00326729 0.00603246 19.9198 -0.00882315 0.0107434 19.9195 -0.00799441 0.00100556
19.8501 -0.0166769 -0.0957117 19.7934 -0.0206199 -0.0681099 19.9556 -0.0515115 -1.02336 20.4348
-0.0687222 -0.932953 20.2158 -0.0539355 -0.508177 19.9305 -0.0561138 -0.635451 20.3097 -0.165328
0.452335 20.31 -0.16622 0.45579 20.1012 -0.252434 0.580605 19.9914 -0.241597 0.300191