# vtk DataFile Version 2.0
tracks
ASCII
DATASET POLYDATA
POINTS 2590 float
-1.001 -0.05 0.0011 -0.900789 -0.0500216 0.00109731 -0.800577 -0.0500432 0.00109463 -0.700366 -0.0500647
0.00109196 -0.600155 -0.0500862 0.00108929 -0.499943 -0.0501076 0.00108663 -0.424945 -0.0501116 0.00107892
-0.349947 -0.0501526 0.0010688 -0.274949 -0.0501933 0.00105878 -0.19995 -0.0502336 0.00104884 -0.124952
-0.0502735 0.001039 -0.0499538 -0.0502831 0.00103923 0.0250446 -0.0502921 0.00104797 0.100043 -0.0503013
0.00105679 0.175041 -0.0503105 0.00106568 0.25004 -0.0503198 0.00107464 0.400037 -0.0503139 0.00109076
0.550035 -0.0503123 0.00110501 0.700032 -0.0503107 0.00111944 0.85003 -0.050309 0.00113407 1.00003
-0.0503074 0.00114888 1.15003 -0.0503181 0.00115608 1.30002 -0.050324 0.00116059 1.45002 -0.0503299
0.00116511 1.60002 -0.0503358 0.00116965 1.75002 -0.0503417 0.0011742 1.90002 -0.0503503 0.00117706
2.05002 -0.050357 0.00117902 2.20001 -0.0503636 0.00118098 2.35001 -0.0503703 0.00118294 2.50001
-0.0503769 0.0011849 2.65001 -0.0503849 0.00118594 2.80001 -0.0503932 0.00118666 2.95001 -0.0504014
0.00118737 3.10001 -0.0504096 0.00118808 3.25001 -0.0504179 0.00118879 3.40001 -0.0504258 0.00118907
3.55001 -0.0504347 0.00118967 3.70001 -0.0504437 0.00119026 3.85001 -0.0504527 0.00119086 4.00001
-0.0504616 0.00119146 4.15 -0.0504694 0.00119153 4.3 -0.0504792 0.00119222 4.45 -0.0504889
0.00119291 4.6 -0.0504987 0.0011936 4.75 -0.0505084 0.00119429 4.9 -0.0505161 0.00119428
5.05 -0.0505263 0.00119513 5.2 -0.0505365 0.00119598 5.35 -0.0505468 0.00119683 5.5
-0.050557 0.00119768 5.65 -0.0505646 0.00119764 5.8 -0.0505751 0.00119865 5.95 -0.0505857
0.00119965 6.1 -0.0505962 0.00120066 6.25 -0.0506068 0.00120168 6.4 -0.0506143 0.0012016
6.55 -0.050625 0.00120274 6.7 -0.0506358 0.00120389 6.85 -0.0506466 0.00120503 7
-0.0506573 0.00120618 7.15 -0.0506648 0.00120609 7.3 -0.0506757 0.00120734 7.45 -0.0506866
0.00120859 7.6 -0.0506975 0.00120984 7.75 -0.0507084 0.00121109 7.9 -0.0507158 0.00121099
8.05 -0.0507268 0.00121233 8.2 -0.0507378 0.00121367 8.35 -0.0507488 0.00121501 8.5
-0.0507598 0.00121635 8.65 -0.0507671 0.00121624 8.8 -0.0507782 0.00121766 8.95 -0.0507893
0.00121907 9.1 -0.0508004 0.00122049 9.25 -0.0508115 0.00122192 9.4 -0.0508187 0.00122179
9.55 -0.0508762 0.00122393 9.7 -0.0509854 0.00122681 9.85 -0.0511461 0.00123044 10
-0.0513585 0.00123481 -1.001 -0.05 0.0537316 -0.900807 -0.0501068 0.0535765 -0.800614 -0.0502138
0.0533941 -0.700421 -0.0503446 0.0531779 -0.600229 -0.0505065 0.052926 -0.500035 -0.0506995 0.0526385
-0.425004 -0.050949 0.0524159 -0.349973 -0.051288 0.0521263 -0.274943 -0.0516746 0.0518575 -0.199912
-0.052095 0.0516311 -0.124879 -0.0525 0.0514871 -0.0498864 -0.0527687 0.0515237 0.0251064 -0.0529916
0.0516894 0.100099 -0.05321 0.0519239 0.175092 -0.0534377 0.0522065 0.250087 -0.0536604 0.0525242
0.400077 -0.0540516 0.0531602 0.550067 -0.0544402 0.0536754 0.700057 -0.0547871 0.0541419 0.850047
-0.0550925 0.0545593 1.00003 -0.0553644 0.0549271 1.14679 -0.0557357 0.0552053 1.29355 -0.0560755
0.0554648 1.4403 -0.0564125 0.0556907 1.58706 -0.0567468 0.0558828 1.70436 -0.0570118 0.0560094
1.71349 -0.0570332 0.0560179 1.72263 -0.0570547 0.0560263 1.73176 -0.0570763 0.0560346 1.74089
-0.057098 0.0560429 1.75002 -0.0571198 0.0560511 1.90002 -0.0574797 0.0561841 2.05002 -0.0578352
0.0563 2.20001 -0.058187 0.0563982 2.35001 -0.0585349 0.0564788 2.50001 -0.0588788 0.0565417
2.65001 -0.0592279 0.0565935 2.80001 -0.0595767 0.0566387 2.95001 -0.0599247 0.0566761 3.10001
-0.0602718 0.0567059 3.25001 -0.0606181 0.056728 3.40001 -0.0609651 0.056745 3.55001 -0.0613137
0.0567613 3.70001 -0.0616608 0.0567756 3.85001 -0.0620063 0.0567879 4.00001 -0.0623504 0.0567981
4.15 -0.0626919 0.0568058 4.3 -0.0630375 0.0568146 4.45 -0.0633816 0.0568227 4.6
-0.0637242 0.05683 4.75 -0.0640652 0.0568365 4.9 -0.0644012 0.0568407 5.05 -0.0647428
0.056847 5.2 -0.065083 0.0568528 5.35 -0.0654218 0.0568582 5.5 -0.0657592 0.0568633
5.65 -0.0660896 0.0568658 5.8 -0.0664266 0.0568708 5.95 -0.0667624 0.0568756 6.1
-0.067097 0.0568802 6.25 -0.0674302 0.0568845 6.4 -0.0677553 0.0568859 6.55 -0.0680877
0.0568903 6.7 -0.068419 0.0568945 6.85 -0.068749 0.0568986 7 -0.0690777 0.0569025
7.15 -0.0693976 0.0569031 7.3 -0.0697253 0.0569071 7.45 -0.0700518 0.056911 7.6
-0.0703771 0.0569148 7.75 -0.0707012 0.0569184 7.9 -0.0710158 0.0569185 8.05 -0.0713388
0.0569223 8.2 -0.0716605 0.0569261 8.35 -0.071981 0.0569298 8.5 -0.0723004 0.0569335
8.65 -0.0726099 0.0569335 8.8 -0.072928 0.0569373 8.95 -0.0732448 0.056941 9.1
-0.0735605 0.0569446 9.25 -0.073875 0.056948 9.4 -0.0741792 0.0569476 9.55 -0.0744927
0.0569511 9.7 -0.0748057 0.0569546 9.85 -0.0751182 0.0569581 10 -0.0754302 0.0569616
-1.001 -0.05 0.106363 -0.900818 -0.0500787 0.106138 -0.800636 -0.0501552 0.105866 -0.700455
-0.0502586 0.105546 -0.600274 -0.0504324 0.105004 -0.50009 -0.0506765 0.104242 -0.424996 -0.050965
0.103656 -0.349901 -0.0513151 0.10305 -0.274807 -0.0516697 0.102512 -0.199711 -0.0519699 0.102083
-0.124607 -0.0523146 0.10198 -0.0496047 -0.052565 0.102092 0.0253974 -0.0527609 0.102322 0.100399
-0.0529438 0.102634 0.175401 -0.0531471 0.103031 0.250411 -0.0533706 0.103513 0.400346 -0.0537822
0.104513 0.550283 -0.0541921 0.105385 0.700219 -0.0545628 0.10617 0.850157 -0.0549025 0.106788
1.00009 -0.0552108 0.107239 1.15007 -0.0556542 0.107504 1.30006 -0.0559536 0.107801 1.45005
-0.0562018 0.108078 1.60003 -0.056444 0.108321 1.75002 -0.0566802 0.108532 1.90002 -0.0569896
0.108677 2.05002 -0.0572363 0.108832 2.20001 -0.0574772 0.108971 2.35001 -0.0577156 0.109093
2.50001 -0.0579514 0.109198 2.65001 -0.058243 0.109268 2.80001 -0.0584933 0.109335 2.95001
-0.0587424 0.109396 3.10001 -0.0589907 0.109448 3.25001 -0.0592383 0.109493 3.40001 -0.0595282
0.109528 3.55001 -0.0597824 0.109561 3.70001 -0.0600346 0.109593 3.85001 -0.0602852 0.109622
4 -0.0605343 0.109649 4.15 -0.0608179 0.109675 4.3 -0.061072 0.109696 4.45
-0.0613241 0.109717 4.6 -0.0615747 0.109737 4.75 -0.0618237 0.109756 4.9 -0.0621009
0.109778 5.05 -0.0623529 0.109793 5.2 -0.0626032 0.109808 5.35 -0.0628521 0.109822
5.5 -0.0630995 0.109836 5.65 -0.0633702 0.109857 5.8 -0.0636196 0.109868 5.95
-0.0638675 0.109879 6.1 -0.0641141 0.109889 6.25 -0.0643594 0.109899 6.4 -0.064624
0.109918 6.55 -0.0648705 0.109926 6.7 -0.0651155 0.109934 6.85 -0.0653593 0.109941
7 -0.0656019 0.109949 7.15 -0.0658606 0.109967 7.3 -0.0661039 0.109973 7.45
-0.0663458 0.109978 7.6 -0.0665865 0.109983 7.75 -0.066826 0.109988 7.9 -0.067079
0.110006 8.05 -0.0673188 0.110009 8.2 -0.0675574 0.110013 8.35 -0.0677949 0.110016
8.5 -0.0680311 0.11002 8.65 -0.0682786 0.110037 8.8 -0.0685148 0.11004 8.95
-0.0687498 0.110042 9.1 -0.0689836 0.110045 9.25 -0.0692162 0.110047 9.4 -0.0694579
0.110063 9.55 -0.0696908 0.110064 9.7 -0.0699231 0.110065 9.85 -0.0701549 0.110066
10 -0.0703862 0.110067 -1.001 -0.05 0.158995 -0.900796 -0.0500892 0.15877 -0.800593
-0.0501944 0.158424 -0.700392 -0.050357 0.157687 -0.600196 -0.0505899 0.156474 -0.499992 -0.0508849
0.154632 -0.42472 -0.051494 0.153029 -0.349437 -0.0519639 0.152108 -0.274149 -0.0523633 0.151544
-0.198859 -0.0527609 0.15125 -0.123699 -0.0530808 0.151302 -0.0487806 -0.0532059 0.151464 0.0261369
-0.0532867 0.151944 0.101053 -0.0534291 0.152649 0.175967 -0.0535982 0.153448 0.250943 -0.0537545
0.154277 0.400783 -0.0539705 0.155699 0.550624 -0.0544814 0.156877 0.700468 -0.054957 0.157632
0.850313 -0.055358 0.158232 1.00014 -0.0557275 0.158664 1.15012 -0.0562329 0.158911 1.30009
-0.0565939 0.159189 1.45007 -0.056861 0.159458 1.60005 -0.0570508 0.159713 1.75002 -0.0572347
0.159935 1.90002 -0.0574928 0.16009 2.05002 -0.0576878 0.160256 2.20002 -0.0578707 0.160408
2.35001 -0.0580448 0.160545 2.50001 -0.0582165 0.160665 2.65001 -0.0584444 0.160749 2.80001
-0.0586309 0.160831 2.95001 -0.0588151 0.160906 3.10001 -0.0589977 0.160975 3.25001 -0.0591796
0.161035 3.40001 -0.0594039 0.161086 3.55001 -0.0595926 0.161134 3.70001 -0.0597784 0.161182
3.85001 -0.059962 0.161228 4 -0.0601441 0.161272 4.15 -0.0603606 0.161314 4.3
-0.0605477 0.161352 4.45 -0.0607323 0.16139 4.6 -0.0609146 0.161426 4.75 -0.0610954
0.161462 4.9 -0.0613041 0.161502 5.05 -0.061488 0.161534 5.2 -0.0616696 0.161566
5.35 -0.0618493 0.161598 5.5 -0.0620276 0.161629 5.65 -0.0622287 0.161667 5.8
-0.062409 0.161695 5.95 -0.0625873 0.161723 6.1 -0.0627639 0.16175 6.25 -0.0629392
0.161777 6.4 -0.0631334 0.161814 6.55 -0.0633099 0.161839 6.7 -0.0634846 0.161864
6.85 -0.0636577 0.161888 7 -0.0638297 0.161913 7.15 -0.0640173 0.161948 7.3
-0.0641898 0.161971 7.45 -0.0643608 0.161993 7.6 -0.0645303 0.162015 7.75 -0.0646986
0.162037 7.9 -0.0648799 0.162072 8.05 -0.0650486 0.162092 8.2 -0.0652157 0.162113
8.35 -0.0653815 0.162133 8.5 -0.0655462 0.162154 8.65 -0.0657216 0.162188 8.8
-0.0658862 0.162208 8.95 -0.0660493 0.162227 9.1 -0.0662109 0.162246 9.25 -0.0663714
0.162265 9.4 -0.0665406 0.162297 9.55 -0.0667014 0.162315 9.7 -0.0668613 0.162332
9.85 -0.0670204 0.16235 10 -0.0671792 0.162366 -1.001 -0.05 0.211626 -0.94763
-0.0500809 0.211469 -0.894261 -0.0501665 0.211279 -0.840891 -0.0502566 0.211054 -0.787522 -0.0503914
0.210764 -0.724301 -0.050636 0.210285 -0.679426 -0.0509145 0.209635 -0.634556 -0.0512505 0.208755
-0.589689 -0.0515904 0.207739 -0.544825 -0.0519353 0.206585 -0.499928 -0.0522867 0.205291 -0.469477
-0.0525812 0.204238 -0.439027 -0.052886 0.203122 -0.408573 -0.0531753 0.202134 -0.378115 -0.0534503
0.201266 -0.329974 -0.0538699 0.200029 -0.288939 -0.0542117 0.19912 -0.2479 -0.0545533 0.198425
-0.206857 -0.0548992 0.198045 -0.165812 -0.0552098 0.197954 -0.124884 -0.0554455 0.198127 -0.0496122
-0.0557546 0.198838 0.0256573 -0.0558948 0.199787 0.100922 -0.0560067 0.201068 0.176185 -0.0561521
0.202428 0.251487 -0.0562907 0.203583 0.251969 -0.0562914 0.203589 0.252451 -0.0562922 0.203595
0.252933 -0.0562929 0.203602 0.253415 -0.0562937 0.203608 0.253901 -0.0562945 0.203614 0.328175
-0.0564102 0.204586 0.40245 -0.0565278 0.205431 0.476727 -0.0566473 0.206151 0.551005 -0.0567954
[...]
POINT_DATA 2590
FIELD attributes 4
age 1 2590 float
0 0.00501121 0.0100224 0.0150336 0.0200449 0.0250561 0.0288056 0.0325533 0.036301 0.0400488 0.0437965
0.0475449 0.0512906 0.0550362 0.0587817 0.0625272 0.070024 0.0775229 0.0850219 0.0925208 0.10002
0.10752 0.115019 0.122519 0.130019 0.137519 0.145019 0.152519 0.160019 0.167518 0.175018
0.182518 0.190018 0.197517 0.205017 0.212517 0.220017 0.227516 0.235016 0.242516 0.250015
0.257515 0.265015 0.272515 0.280014 0.287514 0.295014 0.302514 0.310014 0.317513 0.325013
0.332513 0.340013 0.347512 0.355012 0.362512 0.370012 0.377512 0.385011 0.392511 0.400011
0.407511 0.415011 0.42251 0.43001 0.43751 0.44501 0.452509 0.460009 0.467509 0.475009
0.482509 0.490009 0.497508 0.505008 0.512508 0.520008 0.527507 0.535005 0.542503 0.55
0 0.00502605 0.0100534 0.0150748 0.020088 0.0250931 0.0288322 0.0325654 0.0362919 0.0400115
0.0437249 0.0474311 0.0511303 0.0548277 0.058525 0.0622241 0.0696347 0.0770707 0.0845214 0.091987
0.0994671 0.106799 0.114132 0.121466 0.128802 0.134667 0.135123 0.13558 0.136036 0.136493
0.136949 0.14445 0.15195 0.159449 0.166948 0.174446 0.181945 0.189442 0.196939 0.204436
0.211933 0.219431 0.226928 0.234424 0.241922 0.249419 0.256917 0.264414 0.271912 0.279409
0.286907 0.294405 0.301903 0.309401 0.3169 0.324398 0.331897 0.339395 0.346894 0.354392
0.361891 0.369391 0.376889 0.384388 0.391888 0.399387 0.406887 0.414386 0.421886 0.429385
0.436885 0.444386 0.451885 0.459386 0.466886 0.474386 0.481887 0.489387 0.496888 0.504389
0.51189 0.519391 0.526892 0.534393 0.541894 0.549395 0 0.00502804 0.0100579 0.015082
0.0200995 0.0251107 0.0288577 0.0325977 0.0363285 0.0400543 0.0437705 0.0474752 0.0511741 0.0548719
0.0585687 0.0622652 0.0696634 0.0770888 0.0845322 0.0919978 0.0994851 0.106988 0.114493 0.122
0.129508 0.137018 0.144533 0.152042 0.15955 0.167058 0.174565 0.182078 0.189583 0.197089
0.204594 0.212099 0.219611 0.227116 0.234621 0.242126 0.249631 0.257143 0.264649 0.272154
0.27966 0.287166 0.294678 0.302184 0.30969 0.317196 0.324702 0.332215 0.339721 0.347228
0.354734 0.36224 0.369754 0.377261 0.384767 0.392274 0.399781 0.407295 0.414802 0.422309
0.429816 0.437323 0.444838 0.452345 0.459852 0.46736 0.474867 0.482383 0.48989 0.497398
0.504906 0.512414 0.51993 0.527438 0.534946 0.542454 0.549962 0 0.00503015 0.0100663
0.0150997 0.0201272 0.0251498 0.0289156 0.0326695 0.0364114 0.040143 0.0438578 0.0475527 0.0512422
0.0549307 0.0586183 0.0623095 0.0696966 0.07712 0.0845739 0.0920444 0.0995361 0.107048 0.114562
0.12208 0.129602 0.137126 0.144655 0.152179 0.159702 0.167225 0.174747 0.182275 0.189796
0.197316 0.204837 0.212357 0.219884 0.227404 0.234925 0.242445 0.249965 0.257493 0.265013
0.272534 0.280055 0.287576 0.295104 0.302625 0.310146 0.317667 0.325189 0.332717 0.340238
0.34776 0.355282 0.362803 0.370332 0.377854 0.385376 0.392898 0.40042 0.407949 0.415472
0.422994 0.430516 0.438039 0.445569 0.453092 0.460614 0.468137 0.47566 0.48319 0.490713
0.498236 0.50576 0.513283 0.520814 0.528337 0.535861 0.543384 0.550908 0 0.00268283
0.00536735 0.00805356 0.0107391 0.0139184 0.0161735 0.0184283 0.0206823 0.0229355 0.0251896 0.0267161
0.0282406 0.0297621 0.0312807 0.0336754 0.0357088 0.0377365 0.0397587 0.0417754 0.0437806 0.0474593
0.0511394 0.0548207 0.0585086 0.0622093 0.0622331 0.0622568 0.0622806 0.0623043 0.0623282 0.0659871
0.0696559 0.0733347 0.0770237 0.0807226 0.0813135 0.0819043 0.0824953 0.0830862 0.0836628 0.0868212
0.0899821 0.0931457 0.0963118 0.09948 0.107001 0.114523 0.12205 0.129582 0.137118 0.144662
0.152199 0.159735 0.167272 0.174809 0.182352 0.189887 0.197422 0.204957 0.212492 0.220034
0.227569 0.235104 0.242639 0.250174 0.257716 0.265251 0.272786 0.280322 0.287857 0.2954
0.302936 0.310472 0.318007 0.325543 0.333087 0.340623 0.348159 0.355695 0.363231 0.370775
0.378312 0.385848 0.393385 0.400922 0.408466 0.416003 0.42354 0.431077 0.438614 0.446158
0.453696 0.461233 0.468771 0.476308 0.483853 0.491391 0.498929 0.506467 0.514005 0.52155
0.529089 0.536627 0.544165 0.551703 0 0.00126445 0.00252928 0.0037948 0.00506111 0.00632825
0.0101158 0.0139117 0.0177192 0.0215334 0.02533 0.0269102 0.0284801 0.0300433 0.0315993 0.0329863
0.0333155 0.0336445 0.033973 0.0343014 0.0346297 0.036458 0.0382792 0.0400914 0.0418985 0.043696
0.0454966 0.0473017 0.0491189 0.0509409 0.0527672 0.0529212 0.0530753 0.0532295 0.0533836 0.0535454
0.0552211 0.0568996 0.0585807 0.0602648 0.0619515 0.0656473 0.06936 0.0730907 0.0768322 0.0805827
0.0843463 0.088109 0.0918725 0.0956386 0.0994071 0.106943 0.114481 0.122023 0.129569 0.137119
0.144685 0.152238 0.15979 0.167343 0.174896 0.182456 0.190008 0.19756 0.205111 0.212663
0.220221 0.227772 0.235323 0.242874 0.250426 0.257984 0.265536 0.273087 0.280639 0.28819
0.29575 0.303301 0.310853 0.318405 0.325957 0.333517 0.341069 0.348621 0.356173 0.363726
0.371286 0.378838 0.386391 0.393943 0.401496 0.409057 0.416609 0.424162 0.431715 0.439268
0.446829 0.454382 0.461935 0.469489 0.477042 0.484603 0.492157 0.49971 0.507264 0.514818
0.522379 0.529933 0.537486 0.54504 0.552594 0 0.00126545 0.00253142 0.00379791 0.00506491
0.00633245 0.00822685 0.0101236 0.0120229 0.013925 0.0158292 0.0177467 0.019669 0.0215923 0.0235188
0.0254577 0.0264289 0.0273974 0.0283615 0.0293212 0.0302807 0.0307556 0.031229 0.0317002 0.0321694
0.0326817 0.033138 0.0335923 0.0340446 0.0344949 0.0349427 0.0358532 0.0367604 0.0376635 0.0385623
0.0394522 0.0403414 0.0412291 0.0421161 0.0430028 0.04389 0.0452432 0.0466032 0.0479703 0.0493166
0.0528847 0.0547136 0.0565562 0.0584102 0.0602708 0.0621321 0.0640034 0.0658758 0.0677503 0.0696275
0.0715087 0.0733973 0.0752803 0.0771596 0.0790407 0.0809269 0.0840645 0.0872063 0.0903499 0.0934951
0.0961486 0.0969028 0.0976571 0.0984116 0.0991662 0.0999209 0.107515 0.11511 0.122709 0.130313
0.13792 0.145552 0.153159 0.160762 0.168364 0.175966 0.183587 0.191187 0.198785 0.206382
0.21398 0.221597 0.229194 0.23679 0.244387 0.251983 0.259598 0.267195 0.27479 0.282386
0.289983 0.297596 0.305192 0.312788 0.320383 0.327979 0.335591 0.343187 0.350782 0.358377
0.365973 0.373584 0.381179 0.388774 0.396369 0.403964 0.411573 0.419168 0.426763 0.434357
0.441952 0.44956 0.457155 0.464749 0.472343 0.479938 0.487545 0.495139 0.502733 0.510326
0.51792 0.525526 0.53312 0.540713 0.548307 0.555901 0 0.00126279 0.00252626 0.00379076
0.00505644 0.0063233 0.00823334 0.0101454 0.0120612 0.0139803 0.0159048 0.0178221 0.0197524 0.0216955
0.0236514 0.0256296 0.0266296 0.0276304 0.0286315 0.0296319 0.0306442 0.0308916 0.0311391 0.0313862
0.0316313 0.0318213 0.0325721 0.0333105 0.0340358 0.0347474 0.0354508 0.0358979 0.0363432 0.036787
0.0372293 0.0376656 0.038103 0.0385375 0.0389696 0.039401 0.03983 0.0402618 0.0406937 0.0411256
0.0415582 0.0419933 0.0424286 0.0428633 0.0432983 0.0437343 0.0441725 0.0450491 0.045935 0.0468313
0.0477388 0.0486635 0.0494041 0.0501438 0.0508859 0.0516311 0.0525467 0.0527072 0.0528679 0.0530287
0.0531895 0.0533505 0.0543037 0.0552556 0.0562096 0.0571663 0.0581253 0.0590933 0.0600605 0.0610287
0.0619999 0.0629729 0.0649403 0.0669025 0.0688595 0.0708209 0.0727659 0.0746972 0.076643 0.0786035
0.0805684 0.0825386 0.0865001 0.090453 0.0943801 0.0982912 0.102206 0.110035 0.117831 0.125556
0.133222 0.140891 0.148589 0.156266 0.163938 0.171605 0.179271 0.186953 0.194617 0.202279
0.209939 0.217599 0.225274 0.232933 0.240591 0.248247 0.255904 0.263574 0.27123 0.278886
0.28654 0.294194 0.30186 0.309515 0.317168 0.32482 0.332472 0.340135 0.347787 0.355438
0.363088 0.370738 0.378397 0.386047 0.393696 0.401344 0.408992 0.416649 0.424297 0.431944
0.43959 0.447236 0.45489 0.462536 0.470181 0.477825 0.48547 0.49312 0.500765 0.508408
0.51605 0.523692 0.53134 0.538982 0.546623 0.554264 0.561905 0 0.00126442 0.00252949
0.0037952 0.00506157 0.00632918 0.00824624 0.0101657 0.0120885 0.0140175 0.0159588 0.0169288 0.0179018
0.018878 0.0198573 0.0208398 0.0218274 0.0228232 0.0238279 0.0248416 0.0258658 0.0263834 0.0269028
0.0274259 0.0279525 0.0284856 0.0287766 0.0290691 0.0293638 0.0296613 0.0297591 0.0300586 0.0303595
0.0306613 0.0309628 0.0312726 0.0313682 0.0314638 0.0315595 0.0316555 0.0317258 0.0317623 0.0317989
0.0318354 0.0318719 0.0319066 0.0320696 0.0322324 0.0323951 0.0325576 0.0327215 0.0329008 0.0330797
0.0332581 0.0334336 0.0335629 0.0336681 0.0337726 0.0338766 0.0339796 0.0340841 0.0341937 0.0343017
0.0344084 0.034514 0.0346005 0.0346562 0.0347116 0.0347666 0.0348213 0.0348748 0.034972 0.0350688
0.0351652 0.035261 0.0353548 0.0354775 0.0355989 0.0357187 0.0358375 0.036032 0.0361314 0.0362304
0.0363291 0.0364277 0.0365166 0.0366032 0.0366899 0.0367767 0.0368633 0.0370223 0.037144 0.0372656
0.0373869 0.0375081 0.0376275 0.0378462 0.0380634 0.0382805 0.0384981 0.0387122 0.03893 0.0391472
0.0393647 0.0395827 0.0398005 0.0400212 0.0402402 0.0404595 0.0406791 0.0408994 0.0411195 0.0413393
0.0415595 0.0417804 0.0420038 0.0422284 0.0424513 0.0426742 0.0428979 0.0431226 0.0434423 0.0437635
0.0440899 0.0444218 0.0445844 0.0447586 0.0449332 0.0451082 0.0452837 0.0454606 0.0459491 0.0464295
0.0469101 0.047386 0.0478843 0.0484034 0.0489121 0.0494219 0.0499365 0.0504587 0.0505091 0.0505596
0.0506102 0.0506608 0.0507107 0.0517391 0.0528087 0.0539248 0.0550042 0.0560972 0.0573045 0.0584901
0.0596779 0.0608717 0.0620652 0.0624294 0.0627928 0.0631561 0.0635196 0.0639245 0.0647723 0.0656112
0.0664483 0.0672881 0.0681264 0.0681905 0.0682545 0.0683185 0.0683823 0.0684458 0.0695838 0.0707073
0.0718289 0.0729483 0.0740611 0.0752159 0.0763931 0.0775739 0.0787561 0.079941 0.0812738 0.0826076
0.083947 0.0852913 0.0869294 0.0878418 0.0887496 0.0896527 0.0905512 0.0914445 0.0959623 0.100455
0.104872 0.109196 0.113389 0.121572 0.129691 0.137736 0.14571 0.153597 0.161358 0.169119
0.176878 0.184633 0.192386 0.200135 0.207885 0.215632 0.223377 0.23112 0.236592 0.242064
0.247536 0.253006 0.258542 0.260796 0.26305 0.265304 0.267558 0.269812 0.277546 0.285282
0.293018 0.300754 0.30849 0.316216 0.323952 0.331688 0.339423 0.347159 0.354878 0.362614
0.370349 0.378084 0.38582 0.393532 0.401267 0.409002 0.416736 0.424471 0.432178 0.439911
0.447645 0.455379 0.463113 0.470814 0.478546 0.486279 0.494012 0.501745 0.50944 0.517172
0.524903 0.532635 0.540366 0.548056 0.555785 0.563514 0.571244 0.578974 0 0.00125411
0.00250917 0.00376554 0.00502336 0.00628274 0.00821405 0.0101481 0.0120849 0.0140287 0.0159869 0.0169596
0.0179362 0.0189168 0.0199014 0.0208902 0.0218847 0.02289 0.0239069 0.0249356 0.0259773 0.0265059
0.0270377 0.0275762 0.0281216 0.0286758 0.0292414 0.0298146 0.0304008 0.031001 0.0316277 0.0319466
0.0322653 0.0325848 0.0329053 0.0332403 0.0333132 0.0333861 0.033459 0.033532 0.0335912 0.0336651
0.0337377 0.0338096 0.0338808 0.0339414 0.0341132 0.0342818 0.034447 0.0346088 0.0347761 0.0349183
0.0350578 0.0351947 0.0353283 0.0354473 0.035568 0.0356881 0.0358077 0.0359257 0.0360378 0.0361548
0.0362687 0.0363797 0.0364901 0.036636 0.0367434 0.0368507 0.0369577 0.0370646 0.0371626 0.0373592
0.0375558 0.0377557 0.0379586 0.0383896 0.0386223 0.0388553 0.0390862 0.0393152 0.0395395 0.0400024
0.0404595 0.040913 0.0413636 0.0418094 0.0422656 0.0427078 0.0431533 0.0436018 0.0440533 0.0445262
0.0449931 0.0454719 0.0459554 0.0464468 0.0472958 0.0481641 0.049046 0.0499199 0.0517813 0.052904
0.0540284 0.0551763 0.056344 0.057545 0.0588029 0.0600337 0.0612487 0.0624734 0.063703 0.0645577
0.0654011 0.0662441 0.0670825 0.0681413 0.0684942 0.0688472 0.0692004 0.0695541 0.0699082 0.070603
0.0712982 0.0719946 0.0726921 0.0735296 0.0740505 0.0745712 0.0750916 0.0756108 0.0761274 0.0773706
0.0786176 0.0798725 0.0811278 0.0823828 0.0848744 0.0873701 0.0898347 0.0922567 0.094652 0.0994876
0.104275 0.108922 0.113434 0.117793 0.121237 0.124669 0.128088 0.131495 0.13566 0.140394
0.145069 0.149685 0.154244 0.158747 0.166507 0.174277 0.182045 0.189812 0.197578 0.205323
0.213087 0.220852 0.228615 0.236379 0.244112 0.251874 0.259635 0.267397 0.275159 0.282884
0.290644 0.298405 0.306165 0.313926 0.321644 0.329403 0.337163 0.344922 0.352682 0.360393
0.368151 0.37591 0.383668 0.391427 0.399132 0.406889 0.414646 0.422403 0.43016 0.437859
0.445615 0.45337 0.461126 0.468881 0.476575 0.484329 0.492083 0.499837 0.507591 0.51528
0.523032 0.530784 0.538535 0.546287 0.553971 0.561719 0.569468 0.577217 0.584967 0
0.00125903 0.00251875 0.00377914 0.00504095 0.00630441 0.0082331 0.0101647 0.0120993 0.0140412 0.0159973
0.0169702 0.0179472 0.0189283 0.0199135 0.0209031 0.0218976 0.0229026 0.0239194 0.0249479 0.0259894
0.0265184 0.0270502 0.0275879 0.0281322 0.0286858 0.0292488 0.0298194 0.0303995 0.0309921 0.0316143
0.0319304 0.0322472 0.0325643 0.0328815 0.0332112 0.0334485 0.0336844 0.0339184 0.0341464 0.0342432
0.0343472 0.0344502 0.0345521 0.0346528 0.0347562 0.0349572 0.0351513 0.0353388 0.0355204 0.0356747
0.0357516 0.0358282 0.0359041 0.0359792 0.0360632 0.0360633 0.0360633 0.0360633 0.0360634 0.0360634
0.0362084 0.036352 0.0364942 0.0366351 0.0368416 0.0369179 0.0369942 0.0370704 0.0371464 0.0372185
0.0376762 0.038139 0.0386153 0.0390993 0.0395134 0.039975 0.0404257 0.040875 0.0413266 0.0417866
0.042263 0.0427295 0.0431924 0.0436578 0.0441329 0.044626 0.0451095 0.0455872 0.0460702 0.0465672
0.0476016 0.0486585 0.0497275 0.0508164 0.0515026 0.0515907 0.0516787 0.0517666 0.0518544 0.0519423
0.0530737 0.0542293 0.0554127 0.0566192 0.0578467 0.0591248 0.0603782 0.0616113 0.0628597 0.0641021
0.064727 0.0653402 0.0659509 0.0665601 0.0671733 0.0678005 0.068418 0.0690259 0.0696356 0.070251
0.0715032 0.0727655 0.0740247 0.075279 0.0765229 0.0772164 0.0779035 0.0785921 0.0792822 0.0800472
0.080591 0.0811351 0.0816798 0.082226 0.0827558 0.0827634 0.082771 0.0827786 0.0827862 0.0827938
0.0853062 0.0878037 0.0902865 0.0927094 0.0951031 0.0998684 0.104583 0.109188 0.113683 0.118035
0.124671 0.131224 0.137669 0.144007 0.159334 0.161673 0.164012 0.166351 0.168689 0.171057
0.176463 0.181869 0.187273 0.192677 0.19808 0.20582 0.213565 0.221309 0.229054 0.236797
0.244526 0.252268 0.260011 0.267753 0.275496 0.283216 0.290957 0.298699 0.306441 0.314183
0.321896 0.329637 0.337378 0.345119 0.35286 0.360567 0.368307 0.376047 0.383788 0.391528
0.399229 0.406968 0.414707 0.422446 0.430186 0.437881 0.445619 0.453357 0.461095 0.468833
0.476523 0.484259 0.491996 0.499733 0.50747 0.515155 0.52289 0.530625 0.53836 0.546095
0.553774 0.561507 0.569239 0.576972 0.584705 0 0.00127992 0.00256048 0.0038423 0.00512559
0.00641038 0.00831681 0.0102258 0.0121375 0.0140556 0.0159859 0.0169579 0.017933 0.0189115 0.0198934
0.0208788 0.021873 0.0228761 0.0238892 0.0249121 0.0259473 0.0263886 0.0268315 0.0272777 0.0277274
0.0278514 0.0280013 0.0281514 0.0283017 0.028452 0.0286027 0.0291461 0.0296937 0.0302485 0.0308122
0.0313967 0.031471 0.0315453 0.0316195 0.0316937 0.0317583 0.0319763 0.0321942 0.0324119 0.0326295
0.0328507 0.0329302 0.0330097 0.0330891 0.0331683 0.033237 0.0334482 0.0336586 0.0338679 0.0340739
0.0342864 0.0343484 0.03441 0.0344712 0.0345319 0.0345847 0.0345902 0.0345957 0.0346011 0.0346066
0.034612 0.0348275 0.0350383 0.0352448 0.0354438 0.0356343 0.0356559 0.0356775 0.035699 0.0357205
0.0357424 0.0358442 0.035945 0.0360448 0.0361459 0.0362902 0.036384 0.0364773 0.0365699 0.0366615
0.0367507 0.0368545 0.0369574 0.0370599 0.0371625 0.0373105 0.0374097 0.0375088 0.0376078 0.0377076
0.0378051 0.0380169 0.0382268 0.0384362 0.0386449 0.038857 0.039077 0.0392925 0.0395036 0.0397148
0.0399287 0.0401449 0.0403593 0.0405728 0.0407869 0.0410035 0.0412246 0.0414423 0.0416586 0.0418752
0.0420927 0.0423116 0.0425289 0.0427461 0.0429636 0.0431825 0.0436277 0.0440731 0.0445218 0.0449739
0.0454343 0.0459131 0.0463801 0.0468389 0.0473007 0.0477761 0.048259 0.0487402 0.0492215 0.0497067
0.0501997 0.0512162 0.0522388 0.0532747 0.054365 0.0554712 0.0558088 0.0561467 0.0564856 0.0568258
0.0571835 0.0580031 0.0588221 0.0596408 0.0604627 0.0612932 0.0624935 0.0636717 0.0648573 0.0660575
0.0672509 0.0684776 0.0696808 0.0708622 0.0720369 0.0732039 0.07359 0.0739756 0.0743615 0.0747478
0.0751275 0.0754556 0.0757838 0.0761122 0.0764408 0.0767783 0.0772371 0.0776964 0.078156 0.0786161
0.0790765 0.0814229 0.0837713 0.0861185 0.0884358 0.0907264 0.0952402 0.0998067 0.104277 0.108605
0.112825 0.121139 0.129423 0.137643 0.14569 0.153567 0.16131 0.169051 0.176789 0.184524
0.192256 0.199984 0.207711 0.215438 0.223162 0.230884 0.236285 0.241684 0.247084 0.252483
0.257876 0.260196 0.262515 0.264835 0.267155 0.269474 0.277188 0.284904 0.29262 0.300336
0.308052 0.315759 0.323474 0.33119 0.338906 0.346622 0.354323 0.362038 0.369754 0.377469
0.385185 0.392879 0.400594 0.408309 0.416024 0.423739 0.431429 0.439142 0.446857 0.454571
0.462285 0.469969 0.477683 0.485396 0.493109 0.500822 0.508502 0.516214 0.523926 0.531638
0.53935 0.547025 0.554735 0.562445 0.570156 0.577866 0 0.00127753 0.00255577 0.00383512
0.00511576 0.00639768 0.00829925 0.0102028 0.0121091 0.0140203 0.0159396 0.0169038 0.0178698 0.0188378
0.019808 0.0207804 0.0217542 0.022733 0.023717 0.0247056 0.025698 0.0266887 0.0276857 0.028691
0.0296915 0.0306999 0.0307749 0.03085 0.030925 0.0309998 0.0310689 0.0319914 0.0328943 0.0337767
0.0346379 0.0354965 0.0359443 0.0363899 0.0368334 0.0372759 0.0377129 0.0381514 0.0385873 0.0390225
0.039457 0.0398856 0.0403186 0.0407517 0.0411852 0.0416189 0.0420533 0.0424895 0.0429245 0.0433603
0.0437972 0.0442359 0.0451139 0.0460005 0.0468937 0.0477944 0.0487203 0.0496673 0.050607 0.0515402
0.0524803 0.0534297 0.054143 0.0548613 0.0555817 0.0563038 0.0574011 0.0575778 0.0577547 0.0579316
0.0581088 0.058286 0.0592696 0.0602526 0.0612359 0.062219 0.0632013 0.0652013 0.0671883 0.0691647
0.0711506 0.0731336 0.0750918 0.0770761 0.0790754 0.0810787 0.0830838 0.0870959 0.0911245 0.0951213
0.0990734 0.10302 0.105817 0.10862 0.11143 0.114234 0.117522 0.122551 0.127552 0.132525
0.137471 0.142389 0.150099 0.157812 0.165522 0.17323 0.180935 0.188629 0.19633 0.204029
0.211727 0.219424 0.22711 0.234804 0.242496 0.250187 0.257877 0.26556 0.273248 0.280934
0.28862 0.296305 0.303984 0.311667 0.319349 0.32703 0.334711 0.342386 0.350065 0.357743
0.36542 0.373096 0.380768 0.388443 0.396116 0.403789 0.411462 0.419131 0.426802 0.434472
0.442141 0.44981 0.457476 0.465143 0.47281 0.480476 0.488141 0.495804 0.503468 0.511131
0.518794 0.526456 0.534116 0.541776 0.549436 0.557095 0.564754 0 0.00127409 0.0025488
0.00382396 0.00510034 0.00637795 0.00827385 0.0101719 0.0120722 0.0139755 0.015883 0.0177923 0.0197068
0.0216262 0.0235502 0.0254823 0.0264531 0.0274209 0.0283839 0.0293418 0.029959 0.0309774 0.0319881
0.0329884 0.0339785 0.0349568 0.0358657 0.0367713 0.0376727 0.0385712 0.0394607 0.0403512 0.0412403
0.0421282 0.0430152 0.0439015 0.0456786 0.047473 0.049282 0.0511007 0.0529358 0.0537847 0.0546349
0.055487 0.0563411 0.0576547 0.0585632 0.0594735 0.0603857 0.0612999 0.0622155 0.0640911 0.0659696
0.0678509 0.0697347 0.0716206 0.0735161 0.0754037 0.0772923 0.0791823 0.0810733 0.0848692 0.0886641
0.0924635 0.0962674 0.100085 0.107784 0.115486 0.123143 0.130762 0.138397 0.146046 0.153692
0.161337 0.168981 0.176622 0.184269 0.191912 0.199553 0.207192 0.214831 0.222472 0.230111
0.237748 0.245384 0.25302 0.260658 0.268294 0.275928 0.283562 0.291195 0.298831 0.306465
0.314097 0.321729 0.32936 0.336993 0.344624 0.352254 0.359884 0.367513 0.375144 0.382773
0.390401 0.398029 0.405655 0.413284 0.420911 0.428537 0.436163 0.443788 0.451415 0.459039
0.466664 0.474287 0.48191 0.489535 0.497158 0.504781 0.512402 0.520023 0.527646 0.535266
0.542887 0.550507 0.558126 0 0.00127141 0.00254321 0.00381553 0.00508845 0.00636197 0.0101414
0.0139323 0.0177223 0.021509 0.0252995 0.0257901 0.0262795 0.026768 0.0272556 0.0276851 0.0290748
0.0304593 0.0318387 0.0332129 0.0345845 0.0364256 0.0382572 0.0400719 0.0418826 0.0436881 0.0454993
0.0473079 0.0491179 0.0509366 0.0527667 0.054603 0.0564407 0.0582813 0.0601247 0.0619707 0.065673
0.0693891 0.0731212 0.0768682 0.0806188 0.0843892 0.0881577 0.0919264 0.0956972 0.0994704 0.107
0.114528 0.122061 0.129609 0.137172 0.144751 0.152326 0.159904 0.167481 0.175057 0.182638