# vtk DataFile Version 2.0
sampleSurface
ASCII
DATASET POLYDATA
POINTS 2021 float
-0.500032 0 0.11501 -0.499951 3.38813e-21 0.0392727 -0.789037 8.47033e-21 0.120673 -0.500013 -1.35525e-20
0.193965 1.00003 0 0.0485099 1.00003 0 0.0478584 0.475202 0 0.0353615
0.250044 1.41878e-20 0.0305359 0.2506 -5.42101e-20 0.117067 0.251301 0 0.203885 0.364989
0 0.203772 1.75002 0 0.113255 1.75002 0 0.0564279 2.50001 6.89146e-18
0.059229 2.21354 0 0.250758 2.50001 0 0.252875 3.25001 -3.47927e-17 0.0598775
3.25001 -1.69407e-21 0.253888 4.00001 5.60566e-18 0.0599857 4 0 0.253986 4.75
-1.79088e-17 0.0599988 4.75 8.47033e-22 0.253998 5.5 -2.79246e-17 0.0599999 5.5 -4.23516e-22
0.253999 6.25 1.01187e-17 0.06 6.25 0 0.254 7 2.93732e-17 0.06
7 0 0.254 7.75 -2.65294e-17 0.06 7.75 0 0.254 8.5
1.8923e-17 0.06 8.5 0 0.254 9.25 -2.88552e-17 0.06 9.25 -5.29396e-23
0.254 10 -2.64698e-23 0.254 10 0 0.06 -4.24997 0 0.0599042
-5 0 0.0599861 -5 0 0.253986 -4.24997 0 0.253912 -3.49995
0 0.0593815 -3.49994 0 0.253441 -2.74993 0 0.0570188 -2.74991 0
0.251316 -1.99991 0 0.0492276 -1.99987 0 0.242776 -1.24992 -1.69407e-21 0.03
-1.24985 1.23328e-17 0.222327 -1.24989 3.38813e-21 0.125756 -0.874924 2.08116e-17 0.03 -0.874929
0 0.122356 -0.124951 -8.47033e-22 0.03 -0.499941 0 0.03 -0.124922 -8.47033e-22
0.0385291 1.00021 0 0.231242 0.625368 0 0.203537 0.25004 -2.11758e-22 0.03
1.75003 0 0.247334 1.92873 1.69407e-21 0.441438 2.50001 0 0.447397 3.25
-1.69407e-21 0.447898 4 0 0.447986 4.75 0 0.447997 5.5 -4.23516e-22
0.447999 6.25 4.23516e-22 0.447999 7 0 0.448 7.75 -1.05879e-22 0.448
8.5 0 0.448 9.25 0 0.448 10 -2.64698e-23 0.448 -5
-8.47033e-22 0.447985 -4.24997 0 0.447919 -3.49993 0 0.4475 -2.74988 0
0.445609 -1.9998 6.77626e-21 0.437758 -1.24969 1.61411e-17 0.417681 -1.24976 -6.77626e-21 0.31973
-0.875161 7.70461e-18 0.216228 -0.875403 0 0.312476 -0.499924 -8.74138e-19 0.250039 -0.312433
0 0.250037 -0.312436 0 0.200025 -0.499924 0 0.200026 0.250062 3.38813e-21
0.24921 0.250039 -1.69407e-21 0.250046 0.250032 0 0.300069 0.437526 3.05948e-18 0.300066
0.625026 0 0.30005 1.00072 -8.23994e-18 0.326497 1.00196 0 0.423 1.75013
0 0.439575 1.75013 1.77877e-20 0.448245 1.00135 0 0.537141 1.00002 0
0.61834 1.74999 2.71051e-20 0.633055 2.49999 -3.38813e-21 0.641448 3.25 0 0.641907
4 -1.69407e-21 0.641985 4.75 -8.47033e-22 0.641996 5.5 -4.23516e-22 0.641998 6.25
0 0.641999 7 0 0.641999 7.75 0 0.642 8.5 5.29396e-23
0.642 9.25 -5.29396e-23 0.642 10 0 0.642 -5 0 0.641985
-4.24997 -1.69407e-21 0.641926 -3.49993 0 0.641557 -2.74988 0 0.639897 -1.99989
6.77626e-21 0.63382 -1.25099 2.55465e-18 0.614606 -1.25 -2.71051e-20 0.515981 -0.878244 0
0.50789 -0.875961 2.71051e-20 0.459694 -0.875609 0 0.410432 -0.498432 0 0.400603
-0.498071 -1.70762e-18 0.413126 -0.450805 0 0.413349 -0.45095 0 0.400955 0.250009
1.89735e-19 0.412703 0.25 2.71051e-20 0.425212 0.296872 1.00289e-18 0.425187 0.343754 -2.71051e-20
0.425153 0.343763 0 0.400146 0.250006 0 0.400175 1.00162 1.41488e-17 0.520353
-2 4.23516e-22 0.820145 -2.09502 -2.11758e-22 0.830091 -2 0 0.829497 -1.25123
0 0.813251 -1.25126 0 0.713737 -1.25101 6.77626e-21 0.62198 1.00059 0
0.714169 1.00094 0 0.809205 1.75018 0 0.82775 2.5 0 0.835521
3.25 0 0.835917 4 -1.69407e-21 0.835986 4.75 -8.47033e-22 0.835996 5.5
0 0.835998 6.25 0 0.835999 7 0 0.835999 7.75 0
0.836 8.5 0 0.836 9.25 0 0.836 10 0 0.836
-5 -8.47033e-22 0.835986 -4.24997 0 0.835935 -3.49995 0 0.835616 -2.74991
0 0.83419 -0.970118 0 0.703382 -0.87455 0 0.699864 -0.874264 -2.71051e-20
0.649852 -0.874033 -2.71051e-20 0.599873 -0.49698 0 0.599585 -0.497345 -9.21572e-19 0.612046
-0.450014 0 0.611892 -0.44938 2.71051e-20 0.599454 -2.00002 0 0.84097 -1.84639
-3.38813e-21 1.02215 -1.25185 0 1.01276 -0.896512 -3.38813e-21 0.900668 -0.908183 6.77626e-21
0.801076 -0.904022 -1.86347e-20 1.00093 0.624925 0 0.799916 0.249931 0 0.799891
0.249978 0 0.899916 0.249997 0 0.999939 0.999987 0 0.999957 1.75061
-2.1684e-19 1.02409 2.50003 0 1.0296 3.25 -1.69407e-21 1.02993 4 0
1.02999 4.75 0 1.03 5.5 0 1.03 6.25 2.11758e-22 1.03
7 0 1.03 7.75 0 1.03 8.5 5.29396e-23 1.03 9.25
0 1.03 10 0 1.03 -5 0 1.02999 -4.24998 0
1.02994 -3.49996 -8.47033e-22 1.02968 -2.74996 0 1.02849 -2.00026 0 1.02458
-0.87482 0 0.799893 -0.87491 0 0.899919 -0.49993 0 0.799862 -0.499958
7.6233e-19 0.849889 -0.312476 0 0.849885 -0.312472 0 0.799853 -1.25001 8.04681e-21
1.19601 -0.499979 5.29396e-23 1.10737 -0.731886 2.11758e-22 1.19997 -0.499981 0 1.19997
-0.124987 0 0.999933 -0.477759 -5.29396e-23 0.999933 -0.487556 -1.45584e-22 1.09995 0.250008
0 1.19997 1 0 1.19997 1.7507 0 1.22203 2.50003 -1.35525e-20
1.22368 3.25 0 1.22394 4 0 1.22399 4.75 4.23516e-22 1.224
5.5 0 1.224 6.25 2.11758e-22 1.224 7 0 1.224 7.75
1.05879e-22 1.224 8.5 0 1.224 9.25 0 1.224 10 2.64698e-23
1.224 -5 4.23516e-22 1.22399 -4.24999 -4.23516e-22 1.22395 -3.49998 0 1.22374
-2.75001 0 1.22279 -2.00077 0 1.21965 -1.24997 4.23516e-22 1.19997 -0.499969
-5.29396e-23 0.999933 -0.874942 0 0.999936 -0.499979 -1.32349e-23 1.09995 -2.75001 0
1.36967 -3.18711 4.23516e-22 1.41751 -2.75001 4.23516e-22 1.4171 -2.00072 3.38813e-21 1.29692
-2.00065 0 1.41474 -1.25823 6.35275e-21 1.40014 -0.980416 0 1.39998 -0.499986
0 1.39998 0.250009 0 1.39998 1 0 1.39998 1.75054 0
1.41682 2.50002 -1.35525e-20 1.41776 3.25 0 1.41796 4 4.23516e-22 1.41799
4.75 0 1.418 5.5 0 1.418 6.25 0 1.418 7
0 1.418 7.75 0 1.418 8.5 0 1.418 9.25 0
1.418 10 0 1.418 -5 0 1.41799 -4.24999 0 1.41797
-3.49999 -4.23516e-22 1.41781 -1.24998 0 1.39998 -2.80392 1.32349e-23 1.61143 -2.75
-1.32349e-23 1.6114 -2.0003 0 1.60983 -1.25396 2.64698e-23 1.60004 -1.12789 2.64698e-23
1.59999 -0.49999 1.05879e-22 1.59999 0.250008 0 1.59999 1.00001 4.23516e-22 1.59999
1.75038 0 1.61122 2.50002 0 1.61184 3.25 -4.23516e-22 1.61197 4
-4.23516e-22 1.61199 4.75 0 1.612 5.5 0 1.612 6.25 0
1.612 7 0 1.612 7.75 5.29396e-23 1.612 8.5 2.64698e-23 1.612
9.25 -1.32349e-23 1.612 10 -1.32349e-23 1.612 -5 0 1.61199 -4.24999
0 1.61198 -3.49999 0 1.61187 -1.24999 0 1.59999 -2.75 -1.32349e-23
1.63714 -2.64195 -2.11758e-22 1.80559 -2.00012 -8.47033e-22 1.80492 -1.25741 0 1.80004
-1.19082 -7.94093e-23 1.8 -0.499992 1.05879e-22 1.79999 0.250006 2.11758e-22 1.79999 1
0 1.8 1.75023 0 1.80561 2.50001 3.38813e-21 1.80592 3.25 0
1.80599 4 0 1.806 4.75 2.11758e-22 1.806 5.5 0 1.806
6.25 0 1.806 7 0 1.806 7.75 0 1.806 8.5
2.64698e-23 1.806 9.25 0 1.806 10 0 1.806 -5 0
1.806 -4.25 -2.11758e-22 1.80599 -3.49999 0 1.80594 -2.75 -1.05879e-22 1.8057
-1.24999 0 1.8 -2 -4.76456e-22 1.98532 -1.20969 -1.65436e-23 2 -0.499993
0 2 0.250006 0 2 1 0 2 1.75 0
2 2.5 0 2 3.25 0 2 4 0 2
4.75 -1.05879e-22 2 5.5 0 2 6.25 0 2 7
5.29396e-23 2 7.75 0 2 8.5 0 2 9.25 0
2 10 -1.32349e-23 2 -5 2.21817e-18 2 -4.25 1.05879e-22 2
-3.49999 0 2 -2.74999 0 2 -1.99999 -5.29396e-23 2 -1.24999
3.30872e-24 2 0.0956945 -5.42101e-20 0.203879 0.0632748 0 0.203876 0.0625511 0
0.250042 -0.403589 6.77626e-21 0.40138 -0.405779 7.7927e-19 0.38799 -0.406379 -6.77626e-21 0.375196
-0.499567 -1.35525e-20 0.375265 0.250006 -6.50521e-19 0.375144 0.156247 0 0.375155 0.156237
9.41901e-19 0.400212 0.203129 0 0.400201 0.249796 0 0.59991 0.249852 -1.0842e-19
0.587433 0.202953 0 0.587417 0.202888 6.50521e-19 0.599901 0.625121 -6.77626e-21 0.499953
0.717439 6.77626e-21 0.504955 0.625095 6.77626e-21 0.475379 0.343596 1.0842e-19 0.599918 0.343639
0 0.574939 0.296781 0 0.574964 0.249926 0 0.574977 0.62499 -4.2826e-18
0.549927 0.624917 4.55365e-18 0.599925 0.203133 0 0.412725 -0.449046 0 0.587135
-0.496581 5.42101e-20 0.587161 0.625036 -9.32414e-18 0.40006 0.625067 1.13164e-18 0.450032 0.249704
0 0.624881 0.155871 0 0.599866 0.155839 1.95156e-18 0.624853 0.249886 1.35525e-20
0.749873 0.062411 0 0.749846 0.0624478 -4.26227e-18 0.799869 -0.312472 0 0.749804
-0.499901 -3.38813e-21 0.749824 -0.691227 0 0.30453 -0.499912 3.02221e-18 0.300065 -0.875784
-3.11708e-18 0.361353 -0.592465 -2.71051e-20 0.40036 -0.499854 0 0.350135 -0.687111 1.35525e-20
0.350117 -0.68656 -2.71051e-20 0.40021 0.437526 -1.35525e-20 0.400108 0.437522 6.77626e-21 0.350086
0.250015 -2.51399e-18 0.35011 0.625027 3.38813e-21 0.350064 -0.592287 0 0.425286 -0.498048
0 0.425444 -0.873902 5.42101e-18 0.54992 -0.496663 0 0.574746 -0.591532 0
0.574798 -0.591729 0 0.599734 -0.149108 0 0.406489 -0.149477 -5.29396e-23 0.403592
-0.149678 0 0.406489 -0.451876 -2.1684e-18 0.499977 -0.451579 0 0.487563 -0.498366
0 0.487552 -0.498515 -1.0842e-19 0.499993 0.437553 0 0.450075 0.437532 -6.07153e-18
0.425113 0.254621 -1.25361e-19 0.496697 0.26485 -5.42101e-20 0.498023 0.264831 0 0.496529
0.254636 -2.30393e-19 0.49668 0.570241 0 0.499932 0.437665 -2.71051e-20 0.474991 0.437859
-2.71051e-20 0.49988 0.437372 -1.0842e-19 0.599915 0.249722 3.25261e-19 0.649874 0.43732 -5.42101e-20
0.649899 0.624872 0 0.649914 0.624883 -3.95734e-18 0.699913 0.43734 6.83047e-18 0.699894
0.249817 0 0.699869 -0.592227 0 0.624743 -0.498071 -2.71051e-20 0.624658 -0.499769
6.77626e-21 0.69979 -0.687025 0 0.699824 -0.150854 -1.03677e-18 0.599678 -0.151059 -6.77626e-21
0.605522 -0.127339 6.77626e-21 0.605681 -0.127867 0 0.599582 -0.406139 -4.40457e-20 0.699754
-0.406113 0 0.674749 -0.499634 0 0.674774 -0.18433 -4.23516e-22 0.674527 -0.163626
-4.23516e-22 0.678958 -0.165125 0 0.674537 -0.171868 4.23516e-22 0.674524 -0.14924 3.34737e-19
0.400169 -0.125737 0 0.400165 -0.12551 0 0.393854 -0.149076 -2.11758e-22 0.393877
-0.499925 -2.61564e-18 0.325088 -0.406241 0 0.325087 -0.4062 0 0.300069 -0.124901
0 0.300062 -0.218633 -3.27294e-18 0.299673 -0.218596 1.35525e-20 0.324664 -0.124851 0
0.325085 -0.126061 7.86047e-19 0.406473 -0.0785222 1.30782e-18 0.400166 -0.126118 3.38813e-21 0.41275
-0.0785648 0 0.412729 0.240678 1.0842e-18 0.500153 0.252614 -2.1684e-19 0.498317 0.252386
1.0842e-19 0.496231 0.241035 0 0.496114 0.228892 -1.35525e-20 0.496204 0.228835 6.77626e-21
0.498715 0.229819 2.71051e-20 0.500074 0.25248 0 0.499935 0.240657 -1.6263e-19 0.500957
0.264863 0 0.500154 0.264689 0 0.500951 0.437443 0 0.549896 0.437406
[...]
POINT_DATA 2021
FIELD attributes 2
p 1 2021 float
2.00106 1.43069 2.36212 4.35206 0.0611136 0.0590014 -4.19722 -6.03342 -7.67881 -6.14918 -4.30881
0.497962 0.465832 0.113036 0.32816 0.176366 0.00374874 0.0278893 0.00531487 0.0146631 0.00932936
0.0157211 0.00466499 0.0100656 0.000178547 0.00464663 -0.00125237 0.00242997 -0.000832407 0.00222302 -0.000205592
0.00219503 0.000800651 0.00337768 0 0 0.611805 0.607364 0.607212 0.611519 0.632617
0.631721 0.702368 0.699244 0.923868 0.920595 1.63644 1.75794 1.77288 2.22952 2.46925
-4.0535 1.36079 -4.10629 0.652628 -0.1075 -6.02322 0.573746 0.443908 0.191284 0.0302322
0.00805288 0.010171 0.00625424 0.00157599 -0.000230485 -4.43441e-05 -0.000320272 0.00267756 0 0.606778
0.610748 0.629308 0.690229 0.899541 1.95153 2.02419 3.12039 3.86401 7.31086 -3.30847
-1.05861 4.57205 -5.70849 -5.70053 -2.2488 0.340508 0.826636 1.03157 0.925787 0.522877
0.518682 0.840586 0.87379 0.429125 0.168744 0.0239192 0.00297722 0.00717368 0.0049803 0.000967831
-0.000545421 -0.000144018 -0.000121897 0.0029445 0 0.606086 0.609557 0.625676 0.677569 0.859191
1.84561 2.13094 5.12543 5.57869 4.81681 32.5509 36.4348 52.0006 45.9575 4.76605
4.89786 3.39396 3.4364 2.69592 4.09676 0.833722 0.805264 0.784839 0.802557 1.39277
1.78108 1.84083 0.989442 0.482472 0.351309 0.129024 0.0141858 0.000700865 0.00708852 0.00628305
0.00272372 0.00130122 0.00160134 0.00216109 0.00358384 0 0.60521 0.608076 0.621249 0.662721
3.24536 3.74312 4.67388 4.75202 34.3358 32.6749 44.5972 50.7375 0.798734 0.778511
0.93674 1.69759 2.62136 1.13864 0.0809776 -4.86442 -5.2913 -2.74437 -0.227419 0.192318
0.0744873 -0.00508627 -0.0109766 -0.00114583 0.000733882 -0.0012297 -0.00166815 -0.000709433 0.000437985 0.0014003
0 0.60424 0.606454 0.616428 0.646773 0.737538 2.74075 1.72728 5.18263 3.28713
0.553554 -0.676594 0.695328 0.308918 0.311018 0.141329 -1.70745 0.671267 0.279431 -0.973467
-0.392997 0.0988543 0.0658094 -0.00256927 -0.0110295 -0.00127565 0.00132218 -0.000351715 -0.000760797 0.000163701
0.00123175 0.0016953 0 0.603274 0.604844 0.611589 0.630682 0.674192 0.690104 0.821033
1.15551 0.322351 0.619478 0.610797 0.61586 0.653978 0.623149 0.564347 0.382038 0.0582823
-0.564337 -0.377138 0.0468993 0.060132 -0.00405209 -0.0152501 -0.00457935 -0.000864894 -0.00205878 -0.00224511
-0.00118171 -1.9834e-05 0.000509083 0 0.60241 0.603389 0.607173 0.563694 0.604114 0.604151
0.588144 0.49333 0.424957 0.0759493 -0.435529 -0.348408 -0.000340588 0.048754 -0.00764625 -0.0188697
-0.00662942 -0.00183838 -0.00265251 -0.00268033 -0.00153669 -0.000315832 0.000292009 0 0.60173 0.602216
0.603636 0.492825 0.603174 0.592612 0.567867 0.455745 0.425485 0.0852807 -0.365317 -0.33248
-0.0269264 0.0435485 -0.00807873 -0.0199386 -0.00736296 -0.00224277 -0.0029705 -0.00294868 -0.0017657 -0.000515138
0.000149676 0 0.601291 0.601434 0.601297 0.596778 0.454625 0.56161 0.423335 0.0883736
-0.342948 -0.327328 -0.0352673 0.0419721 -0.00818328 -0.0203477 -0.00771074 -0.00246345 -0.0031252 -0.00304666
-0.00182304 -0.000550183 0.000140622 8.31697e-05 0.601136 0.601152 0.600456 0.594264 0.561101 0.442357
-10.2626 -11.1191 -11.7607 70.4586 60.045 43.8588 29.6496 2.93353 1.71335 4.42261
5.07404 4.1157 4.51145 6.12761 5.37077 2.01381 1.72432 2.131 2.9359 3.62764
3.30203 3.89518 2.22919 1.89711 6.05515 56.2256 39.4214 1.92763 2.25155 3.64771
4.71408 2.17984 -4.50271 -11.1614 -9.81573 -3.19067 8.45682 6.99163 11.8889 4.73973
17.4453 20.7997 9.1232 10.5026 2.58233 1.49784 1.00166 1.64983 19.7113 36.8912
5.60307 39.6211 20.3117 18.8032 -58.586 -58.3769 -58.5832 68.4345 68.3473 47.5357
44.7708 3.41165 3.11615 -5.13547 0.292325 0.144077 -5.18546 2.57832 3.98237 3.93629
2.83993 1.8457 1.75068 1.6151 0.944886 0.758205 -1.33834 16.9905 28.0859 13.2842
7.26718 -56.4176 -56.2473 -58.6318 -58.5145 13.8695 19.1098 18.4698 -46.1949 -42.6384
-44.3133 -45.0494 -58.1331 -57.3866 -57.4002 -57.5503 16.5946 15.8622 11.9859 -29.3107
-27.9496 -45.3352 -36.9982 -58.6975 -45.7655 -58.4897 -47.8152 10.9763 4.24426 10.5078
11.847 9.07767 9.35583 9.64636 4.46077 11.0976 0.851235 0.680478 3.6891 3.44281
4.05524 4.30121 47.7288 68.3171 -58.6352 -56.2931 6.45064 11.1026 -51.1288 -52.4228
-58.1954 4.47144 6.24435 6.48617 6.51905 -31.3528 -39.9361 -49.3609 -29.758 64.3817
60.7668 41.6322 41.3812 -43.8811 -55.9159 -11.4841 -8.5304 -0.43041 -24.4474 -42.3763
42.9592 44.2857 64.2824 66.4529 -51.5223 -49.6537 -50.4218 0.350529 -9.6029 -12.6427
-11.6283 -21.5869 -24.7734 -57.6871 44.0152 21.8331 22.1271 11.6876 12.0037 12.1781
13.1282 22.0044 44.4799 10.7848 12.4465 11.8871 13.2259 -58.344 -58.3341 -57.8291
-57.8169 -57.14 -56.4956 -56.1322 45.7942 66.8037 -57.9868 -58.2594 -58.6399 -57.8905
-29.5754 -34.7242 -32.4512 -13.5672 -1.51642 -4.81802 -50.2637 -49.9007 -57.7103 -13.0261
0.13938 0.0986912 -13.2197 -57.9554 -56.5036 -50.9965 -12.3947 -10.1647 -3.70012 1.5189
-7.30682 -5.60975 -18.5686 -38.1481 -41.1817 -36.1008 -51.9233 -52.9423 -52.6816 -4.18612
-17.5283 -18.2634 -4.79002 -55.7928 -51.6663 -55.8066 -3.63685 -9.3354 -16.5973 -11.5823
67.5045 46.8436 -53.9651 -54.1091 -56.5206 -56.4108 -55.9494 -53.4809 -56.8062 -52.8723
-55.7335 -58.695 -58.837 -58.8728 -32.055 -76.9403 -95.923 -100.917 -103.321 -102.89
-48.629 -50.1111 -54.111 -48.1507 -50.0437 -98.2132 -99.4215 -71.2963 -34.3867 -58.1847
-59.0392 -58.7303 -56.0072 -56.8514 -56.8849 -56.8176 -57.26 7.07558 5.979 8.87458
-55.7657 -55.5093 -55.7062 -55.2059 -55.3111 -55.6409 -56.0566 -54.9305 -54.9147 1.94895
1.72385 0.5936 1.12564 4.10279 4.45321 1.23277 -55.6448 -56.0872 -56.7382 5.77159
6.61739 2.76633 0.856486 3.11551 -31.9924 -37.943 -37.2526 -31.6584 -54.2717 -54.7876
-57.7044 -57.3677 -54.7663 -55.5905 -38.7552 -43.0725 -42.8713 -36.7833 -45.9534 -49.9949
-53.0741 -53.2193 -52.0952 123.576 131.438 146.785 146.873 -57.8242 -55.9108 -56.1332
-57.5027 -57.3113 4.33785 2.07737 2.92063 4.49933 -9.79534 -3.98984 -5.91893 -8.94104
-11.8298 -38.9364 -36.7152 -25.5393 -27.298 -32.063 -38.9616 -24.9148 -24.8735 31.0819
41.2538 52.0969 37.9047 23.0553 19.234 34.2647 26.1407 0.668252 0.826206 1.98389
34.0511 24.8779 17.0417 22.1002 2.78772 3.75609 4.37584 4.47814 3.64304 6.59482
6.68863 4.51772 -9.35611 -8.23757 -1.37786 -10.2282 14.6732 9.13586 10.8098 -54.5804
-56.76 -56.8918 -54.7775 -82.3131 -81.0339 -84.2681 -47.8165 -12.6756 -18.3135 -27.5445
-55.877 -52.7089 -55.2327 -56.3005 -73.8371 -73.5231 -58.1657 -59.4532 -49.1936 -47.6773
-49.9277 -50.119 3.65442 3.7201 -0.737321 5.99066 5.62702 4.61126 5.28798 5.75101
6.142 -53.9658 -53.5806 -68.4535 -67.6615 78.9848 94.0813 85.6789 112.089 106.4
88.819 90.1319 161.839 164.173 153.351 121.608 98.3847 104.324 97.2799 117.62
-12.7992 -26.807 -31.0669 -5.7796 -26.0086 -51.9584 -41.5854 -6.26033 93.7069 101.205
86.7847 78.2515 96.6772 88.3745 107.589 148.457 158.208 167.399 165.133 106.601
102.879 159.628 -32.4295 -7.91698 -38.061 -28.3816 -47.4509 140.184 140.053 115.573
110.553 110.215 115.478 139.577 138.961 108.106 167.218 170.826 171.993 172.286
173.695 186.639 186.829 174.802 173.253 -32.7118 -39.8256 -32.6864 -56.138 -50.5275
-42.454 -41.7483 -40.4914 -25.3795 2.704 -2.62594 -0.724238 173.373 175.319 187.181
172.345 186.496 187.141 175.207 172.162 179.593 181.758 170.102 168.869 179.886
167.864 171.084 182.413 -52.3357 -37.6647 -36.4177 -55.4901 -55.4894 -55.6205 -36.2126
-45.9538 -36.3143 -36.7722 -45.5803 -45.5469 -3.46798 -9.31634 -25.0853 -25.1237 -32.6745
-43.2732 -32.7418 -32.4778 -42.7395 -21.1025 -18.9271 -20.5878 115.39 140.114 138.099
139.009 114.648 109.276 170.026 169.899 170.466 167.726 136.374 108.367 113.545
137.124 -56.8782 -53.9265 -52.6772 -52.5111 -55.4874 -45.8927 90.1187 93.3834 78.6156
-15.1084 -6.37731 -6.78279 -20.8944 54.4928 56.3574 69.9937 73.6367 -55.6941 -54.9002
-55.1952 -55.6723 -56.8304 -57.0626 -57.2055 -57.3197 -55.7303 -55.8128 -55.3328 -55.4442
-135.133 -109.381 -77.9222 -95.4692 -97.8323 -98.8534 -98.8463 -82.9009 -78.7714 -92.3547
-70.7328 -85.6398 -133.275 -136.794 -128.64 -96.0643 -96.8267 -54.4129 -53.8429 -54.5106
-55.6703 -55.9551 -53.4856 -53.3852 6.67335 7.16343 13.7004 16.2979 13.7913 -50.7296
-50.0581 -45.6272 -45.8014 -46.1455 -45.9523 -45.9259 -45.7025 12.8225 12.5507 16.776
8.12533 7.93633 9.50486 9.99 10.0244 8.4406 7.24152 7.97394 12.3441 15.7094
13.7235 0.704004 -0.898712 -3.08731 6.96961 6.1639 5.03717 6.34503 7.07555 -52.1953
-53.0867 -56.0422 -55.3512 -48.3854 -49.3758 13.5888 15.5286 16.9161 -46.7786 -49.5969
-49.7299 -46.5102 -45.6838 11.293 11.0374 11.0797 9.46989 6.7533 -7.16846 -5.9391
5.32935 6.24462 6.21428 -48.2626 -48.6201 146.489 148.514 140.931 136.967 113.353
118.302 125.715 121.195 184.6 185.877 182.176 178.417 -55.3701 -55.3017 -52.7153
-52.6264 169.622 183.35 185.05 172.981 174.437 186.564 171.016 182.137 169.612
179.272 -16.9177 -19.2067 -23.9294 -28.2391 -26.8269 -22.9728 -8.8317 -3.51541 -3.9049
-9.08231 -14.0988 -13.7988 -1.04295 -9.05905 -9.92692 -15.0155 -18.1264 -8.23527 -8.98695
-24.9207 -20.2181 -9.64292 -0.784526 -3.04898 6.06479 -3.40438 6.04758 6.78816 3.27084
3.82559 4.55114 4.13179 7.70631 6.09785 3.9135 5.76495 -18.8766 -15.9827 -26.2834
-21.4423 -56.2305 -58.0172 -58.5919 -58.4272 3.01486 3.07877 5.05967 5.54339 4.29611
4.90188 -14.5823 -40.3023 -57.196 -65.3794 -53.256 -31.9349 -58.7447 10.7292 10.1836
10.207 -2.58393 0.114651 11.8817 17.1708 9.47081 23.75 20.6075 10.4214 1.60275
6.72057 8.2183 13.062 11.5052 6.73664 -53.1647 -43.9349 -49.8037 -13.0712 -43.873
-24.9453 -60.5464 -83.5727 108.694 92.7436 106.197 108.373 112.744 111.889 172.868
171.991 173.243 172.558 171.259 185.955 185.956 185.19 -57.6273 -57.8583 174.476
-55.9108 -55.9101 -56.9042 -57.0733 -56.7743 -55.3394 -150.297 -137.214 -137.073 -133.752
-157.934 -136.955 -132.691 -133.019 -119.543 -115.181 -80.5847 -73.0368 -73.2831 -70.7096
-119.422 -121.14 -56.5332 -55.5173 -54.3761 -56.9216 9.39375 7.05958 10.635 8.18055
10.9464 11.9765 12.3461 13.2656 14.0716 -55.0115 -54.1147 -56.1243 -54.9384 -52.9936
-52.7338 -52.8498 -54.7701 -6.11182 -0.593811 -1.50895 -4.72491 9.13229 9.47668 6.74143
5.80564 7.52838 9.51225 8.74671 6.67021 1.20916 8.03427 6.92691 6.78236 8.62724
10.3636 9.17474 12.0147 11.2907 -54.5453 -54.947 -54.9939 -55.1142 -55.2719 -55.146
-54.6719 -52.4609 -53.803 -53.8121 -53.8552 -50.9371 -52.3179 -73.5694 -72.833 -57.4913
-59.7486 -77.2942 -68.165 -77.6875 -124.203 -128.873 -136.475 -79.2645 -97.3358 -107.393
-80.0963 -98.6922 128.752 113.583 148.527 151.749 -54.2499 -53.449 -54.5877 -54.5898
-52.8012 143.869 167.861 146.128 -48.7994 -47.9744 -48.381 -49.1494 -48.9131 -48.9331
-48.8591 -47.4864 -8.1188 -9.40684 -11.9265 -11.0425 -14.9002 -17.0842 -19.2308 -17.0117
-17.9409 74.7941 85.496 -58.7611 51.1932 76.5155 64.98 75.5344 60.9869 13.7046
10.7621 45.5014 36.4968 8.21835 9.05677 3.5392 5.21128 5.03229 7.67683 6.62791
6.99292 7.36234 8.15257 -52.5468 -52.0787 -51.8763 -52.4972 -1.17401 -0.639786 -1.21117
2.13101 5.63837 5.08003 7.05782 6.46811 -50.7923 -51.1396 -50.8782 138.195 136.278
171.172 184.771 189.081 189.368 186.856 185.332 -55.3812 -55.0895 -55.4217 -55.2755
-52.8503 -45.6103 -46.4126 -47.003 -46.2308 -46.5373 -47.798 -55.8621 -55.8864 -56.4771
-57.0011 -56.676 -56.6624 -56.8129 -56.4128 -54.6581 -115.838 -111.381 -135.312 -111.821
-134.231 -122.314 -123.743 -133.695 -55.9619 -57.1763 -55.6579 -54.125 13.577 12.2279
11.2034 12.3478 12.6077 13.2268 -36.7857 -36.3267 -31.6121 -31.0221 -41.7452 -42.3401
-46.4813 -46.0589 -51.0413 -51.0932 -45.6041 -52.0235 -51.6693 -6.32907 -1.07369 -11.5964
0.601624 2.0511 7.99085 7.52018 7.84718 4.24752 10.6647 7.32709 8.74872 10.1283
10.784 10.6839 10.8155 12.6302 12.2894 2.3257 12.3487 14.7909 15.9547 3.86729
3.37993 3.11715 3.79327 -58.7045 -57.8374 -52.8031 -56.3265 -44.5262 -43.969 -40.0108
-44.2957 -45.7382 -49.8043 -51.0508 -49.4254 -49.6724 -49.4066 -47.1488 -52.1829 -47.1943
4.18215 -48.0823 -49.3967 141.008 131.817 129.406 129.464 129.844 114.359 106.94
188.657 188.128 187.133 -50.4249 -50.7373 -1.52828 -0.973886 0.0578222 -29.7761 -30.6389
186.055 186.889 180.362 183.325 181.873 181.5 -33.1756 -29.0625 -3.27658 -7.94301
-6.05157 -3.33996 -24.9246 -13.8341 -10.3985 -13.579 -19.9971 -4.57936 80.8452 56.4876
60.8217 21.0478 21.4153 67.9836 110.675 10.1385 7.16407 -2.27297 -2.5414 6.87404
7.67803 7.96591 6.14324 6.5988 24.5286 16.301 -0.399335 19.7605 -1.88064 3.36017
8.17148 8.08002 67.9891 110.178 -54.5006 -55.6147 18.1199 91.5784 109.013 100.386
92.4433 108.061 109.165 126.575 134.324 143.198 -55.4728 81.6141 73.5973 50.3758
12.531 18.5354 16.7158 -75.5975 -56.6188 -56.6121 -56.6156 -55.1206 -55.0383 -59.7411
-55.3185 -59.7818 -60.3292 23.4345 -6.56169 5.93293 10.5641 10.8087 -1.47977 -1.57873
-2.69541 -55.3814 -53.8116 -1.10126 2.49323 2.7979 -57.3166 -56.7706 -55.8853 7.92027
7.60952 4.07701 -56.432 41.6747 49.6387 -66.8169 -59.0613 17.4465 14.9356 8.89592
6.81592 4.9731 8.41009 6.85783 -53.9865 -53.9676 -52.7737 -52.6673 -55.748 -52.0703
-51.5775 -54.2146 -54.5515 -54.5394 -53.9902 -55.1378 -54.6819 -54.5534 -54.2653 4.39994
-51.5689 -57.5272 -56.4844 100.505 129.15 144.713 155.181 168.094 162.929 160.74
148.735 188.241 -52.4552 -53.3731 -51.6197 -7.40384 -10.4246 -3.31156 -49.4615 -49.5076
-49.4221 -49.6662 -52.9711 -47.1993 -48.5957 -47.3936 -46.9727 -47.6587 28.6034 20.037
-112.354 -120.029 -119.891 -120.542 -120.894 -73.6828 -96.3638 -73.6858 13.2787 16.9545
-11.0841 12.0036 11.437 -5.55576 -7.13539 4.00875 2.4191 0.911646 0.568672 -0.699134
-2.31225 -1.06423 4.08151 4.48427 0.52715 2.7834 4.45025 2.35783 1.28317 13.1891
17.5478 -49.9619 5.40161 12.7678 8.49745 16.4835 8.46464 11.1678 14.1953 15.9758
4.75359 4.95519 6.50703 5.91363 -2.13818 -4.08118 -6.36229 -6.26128 4.9071 1.60838
4.33772 9.41103 15.305 16.491 8.17046 5.67318 3.00588 2.67487 7.16257 10.624
11.2676 11.9082 11.0654 5.71232 -3.66305 5.58599 -2.88816 3.16209 -3.67234 2.40528
10.9956 8.3234 12.3714 7.02103 9.46661 11.3881 10.7988 10.4989 8.01064 8.61881
9.13817 9.38768 7.97791 7.42688 7.44301 6.08968 -5.54027 -9.08026 -7.28121 6.55982
5.95505 8.0563 6.31886 -9.31538 -11.1315 1.08012 7.11968 5.92821 -1.74098 5.68391
-137.418 -138.116 -138.292 10.1971 -55.3801 -54.3842 -54.4487 5.19254 9.85643 5.27942
8.34323 10.9647 -55.5457 -55.491 -54.9256 -54.6525 -60.7219 -60.2419 -60.7469 -68.7339
-116.061 -120.027 -113.738 -120.783 -48.7014 -49.2284 -47.3362 -47.044 -47.2772 -47.025
-14.695 -14.6943 -17.1206 -52.3204 -52.1378 -51.9097 5.0625 1.39894 4.92681 4.89066
-51.7148 -52.1187 -52.2384 141.768 151.118 -54.9044 -50.4145 13.2309 13.7949 11.5186
7.18093 11.3862 18.7371 4.23038 3.33853 4.65804 3.69141 -53.1369 -57.1005 -56.9104
-55.1111 7.72578 15.0607 11.0956 4.06749 4.22757 10.0735 8.8264 9.51156 8.61226
10.407 12.4152 10.2608 5.73839 8.62656 8.25241 -53.8553 -49.8895 -48.3825 91.2303
80.2724 84.2234 66.7684 72.7474 -4.81853 -2.92767 0.314453 -1.48318 7.61481 8.13978
7.66082 8.26112 8.02433 7.5103 7.05657 116.829 106.786 94.7443 -73.6104 -57.0403
-55.7671 -54.6638 -54.4707 -54.0974 -54.058 163.465 139.741 161.874 161.984 7.48637
4.35805 10.524 11.2045 7.18538 8.52262 7.40803 6.90209 6.13852 2.75105 -2.39786
4.78614 5.43657 6.02641 4.35659 6.64953 14.4468 9.06355 -12.9815 15.5578 14.3064
7.61017 10.7534 15.9695 9.11602 -12.8168 -13.7495 -11.8005 -2.90015 -4.94684 -13.3257
7.16283 5.27112 -14.8767 -16.5466 7.17065 4.831 -1.08313 -4.03433 -54.772 -45.9151
12.9586 1.92813 0.25656 -0.132094 6.02823 5.58661 6.5288 6.1052 6.06084 5.64287
0.307198 6.24599 6.85891 -0.457029 5.71932 4.71569 7.23575 6.72737 6.13441 106.218
86.6879 122.026 123.819 5.20084 4.92573 3.45378 -54.9741 5.12855 6.11942 5.89156
-9.60383 -12.5666 -0.228887 6.2571 6.7441 5.35937 8.0571 5.18161 6.86119 3.86712
37.12 -53.0216 -54.9239 -54.4561 -54.3897 -54.4709 -2.94346 -4.31098 -12.7817 -12.6502
-12.6728 -3.5436 9.39509 3.07208 5.94514 7.05525 2.54206 2.32059 0.022933 -0.959445
-10.9963 -5.26836 -4.14544 -11.3726 -4.20434 -12.253 5.65299 -11.5795 -12.6074 -2.53569
1.21623 6.42962 6.43841 5.86381 8.88224 0.255093 6.7214 -3.09708 -1.08181 4.35334
-0.820003 7.25553 4.83408 -9.90314 9.02095 -0.623994 6.21401 1.07991 1.45748 4.87686
5.23627 4.30752 5.04355 3.06772 7.66853 8.89671 5.45992 6.07277 0.96709 3.43134
11.1087 5.49933 0.77149 -0.527588 3.61474 173.15 176.972 176.113 181.027 169.123
168.095 172.677 179.943 180.934 69.5782 73.7796 54.9212 -55.8956 -41.3851 -38.517
-36.8614 -31.0533 -43.6027 -51.6025 -51.2439 -55.1209 -46.5437 100.747 154.474 162.112
155.25 146.995 -56.2537 -55.8391 -56.1887 -55.9498 -55.4926 -55.9085 -54.6248 -54.9322
-54.7727 3.83368 -0.412073 171.228 -18.4753 186.01 190.262 189.408 -51.0514 -47.0426
182.749 185.881 186.057 -16.4041 -50.7806 85.2548 -54.7973 -54.9273 -55.1905 -55.1496
-49.2968 189.383 -2.48266 189.503 185.518 189.095 7.35925 -64.1586 110.628 109.934
-55.6573 4.52278 -51.4108 -52.706 -51.5153 -138.499 138.744 -54.6426 159.209 -51.6278
-120.975 -120.893 72.2887 6.96975 2.54807 168.084 164.696 -15.4025 139.825 191.106
190 185.409 189.455 190.791 189.784 172.784 191.161 186.777 189.953 191.195
0.611821 0.60737 0.632606 0.7015 0.914849 1.61705 2.20074 -3.9821 1.34789 0.0263484
-4.09251 -5.85958 0.410741 0.0915437 -0.00133836 0.0050491 0.0100273 0.0055441 0.00109076 -0.000358131
1.61883e-05 0.000581565 0.00146156 0.000708335 -53.802 -52.0269 -134.305 -134.866 -47.7953 -48.2181
-48.8315 -47.6404 -48.1029 -48.7562 -49.3784 -47.1807 -94.9163 -74.463 -48.5711 -47.0661
-73.9019 -48.4945 -50.8693 -51.2248 -50.3477 -99.3262 -111.182 -129.779 -120.025 -119.843

U 3 2021 float
20.0064 -0.045047 -0.215539 20.044 -0.030111 -0.0738911 19.9293 -0.00604544 -0.096341 19.9359 -0.0549092
-0.605906 20.0172 -0.0580718 0.0398758 20.0176 -0.0579684 0.0399098 20.1676 -0.0767908 0.0574089
20.2323 -0.0848969 0.0654346 20.2778 -0.0897454 0.149116 20.2899 -0.113857 0.262804 20.2091
-0.115147 0.20778 19.9546 -0.0462364 0.0197678 19.9966 -0.0534224 0.0182877 20.0037 -0.0516906
0.00691776 19.8536 -0.0241147 0.0175637 19.8525 -0.0209216 0.0140437 20.0059 -0.0514107 0.00182533
19.8549 -0.0195331 0.00958418 20.0043 -0.0506278 0.000436797 19.854 -0.017935 0.00867561 20.0026
-0.0498338 -0.000105774 19.8527 -0.0164251 0.00835175 20.0011 -0.0491052 -0.000394959 19.8516 -0.0151311
0.00809005 19.9996 -0.0484546 -0.000577757 19.8505 -0.0140076 0.00785137 19.998 -0.0478277 -0.00069714
19.8494 -0.0129797 0.00765245 19.9963 -0.0472095 -0.000782629 19.8483 -0.0120419 0.00745322 19.9947
-0.0466017 -0.000803592 19.8473 -0.0111806 0.00736765 19.9927 -0.0459656 -0.00087673 19.8463 -0.0102672
0.00710044 19.8458 -0.00978993 0.00680819 19.9924 -0.0457542 -0.000905025 19.9996 -0.000335588 3.12967e-05
20 0 0 20 0 0 19.9996 -0.000335655 7.87597e-05 19.9983
-0.00077488 9.3711e-05 19.9984 -0.000784228 0.000278384 19.9942 -0.00152455 0.00036745 19.9942 -0.00148982
0.000997689 19.9788 -0.0027434 0.000334675 19.9796 -0.00306432 0.00356813 19.9466 -0.00527131 -0.00904937
19.9364 -0.00605164 -0.00796133 19.9391 0.00248193 -0.0143078 19.9279 -0.00514984 -0.0294655 19.9064
0.00553757 -0.0608996 20.2329 -0.0714538 0.00183061 20.0486 -0.0282829 -0.0565422 20.235 -0.0705235
0.00511256 19.9276 -0.0874911 0.0301126 20.0245 -0.11635 0.0815067 20.232 -0.0848661 0.0649161
19.8555 -0.02928 0.0232581 19.31 0.117875 0.0101567 19.3419 0.1154 0.0113056 19.3698
0.109773 0.0113879 19.3907 0.105505 0.0120686 19.4088 0.10173 0.0125624 19.4255 0.0981823
0.0127227 19.4413 0.094838 0.0127118 19.456 0.0917018 0.0126269 19.4701 0.0887204 0.0124769
19.4831 0.0858978 0.0123546 19.4976 0.0831518 0.0120656 19.5063 0.0817471 0.0118029 20
0 0 19.9996 -0.000336219 0.000137366 19.9985 -0.000782553 0.000489649 19.9946 -0.00149591
0.00171547 19.9801 -0.00318516 0.00601668 19.9199 -0.00860992 0.0106992 19.9196 -0.00777955 0.000985999
19.8503 -0.0161709 -0.0956362 19.7937 -0.0200961 -0.0681131 19.9557 -0.0499343 -1.0234 20.435
-0.0659282 -0.934034 20.216 -0.0519423 -0.508356 19.9307 -0.0549114 -0.635388 20.3084 -0.160848
0.451125 20.3088 -0.161719 0.454565 20.099 -0.245694 0.578532 19.9894 -0.234476 0.297607