# vtk DataFile Version 2.0
tracks
ASCII
DATASET POLYDATA
POINTS 2590 float
-1.001 -0.05 0.0011 -0.900789 -0.0500216 0.00109731 -0.800577 -0.0500431 0.00109463 -0.700366 -0.0500646
0.00109196 -0.600155 -0.050086 0.00108929 -0.499943 -0.0501074 0.00108663 -0.424945 -0.0501114 0.00107893
-0.349947 -0.0501524 0.00106882 -0.274949 -0.050193 0.00105881 -0.19995 -0.0502332 0.00104889 -0.124952
-0.0502731 0.00103907 -0.0499538 -0.0502825 0.0010393 0.0250446 -0.0502915 0.00104804 0.100043 -0.0503005
0.00105686 0.175041 -0.0503096 0.00106574 0.25004 -0.0503188 0.00107471 0.400037 -0.0503128 0.00109081
0.550035 -0.0503111 0.00110506 0.700032 -0.0503093 0.00111949 0.85003 -0.0503074 0.00113411 1.00003
-0.0503056 0.00114892 1.15003 -0.0503163 0.00115612 1.30002 -0.050322 0.00116062 1.45002 -0.0503277
0.00116513 1.60002 -0.0503335 0.00116966 1.75002 -0.0503393 0.00117421 1.90002 -0.0503478 0.00117707
2.05002 -0.0503544 0.00117902 2.20001 -0.0503609 0.00118096 2.35001 -0.0503674 0.00118291 2.50001
-0.0503739 0.00118487 2.65001 -0.0503819 0.00118591 2.80001 -0.05039 0.00118661 2.95001 -0.0503981
0.00118732 3.10001 -0.0504062 0.00118802 3.25001 -0.0504143 0.00118872 3.40001 -0.0504222 0.001189
3.55001 -0.050431 0.00118959 3.70001 -0.0504399 0.00119017 3.85001 -0.0504487 0.00119076 4.00001
-0.0504576 0.00119134 4.15 -0.0504653 0.00119142 4.3 -0.0504749 0.0011921 4.45 -0.0504845
0.00119278 4.6 -0.0504942 0.00119346 4.75 -0.0505038 0.00119414 4.9 -0.0505114 0.00119413
5.05 -0.0505215 0.00119497 5.2 -0.0505316 0.00119581 5.35 -0.0505418 0.00119665 5.5
-0.0505519 0.00119749 5.65 -0.0505594 0.00119744 5.8 -0.0505698 0.00119844 5.95 -0.0505803
0.00119944 6.1 -0.0505907 0.00120044 6.25 -0.0506011 0.00120144 6.4 -0.0506086 0.00120136
6.55 -0.0506192 0.0012025 6.7 -0.0506299 0.00120363 6.85 -0.0506405 0.00120477 7
-0.0506512 0.0012059 7.15 -0.0506586 0.00120581 7.3 -0.0506693 0.00120705 7.45 -0.0506801
0.00120829 7.6 -0.0506909 0.00120954 7.75 -0.0507017 0.00121078 7.9 -0.0507091 0.00121068
8.05 -0.05072 0.00121201 8.2 -0.0507309 0.00121334 8.35 -0.0507418 0.00121467 8.5
-0.0507527 0.00121601 8.65 -0.05076 0.0012159 8.8 -0.0507709 0.0012173 8.95 -0.0507819
0.00121871 9.1 -0.0507929 0.00122012 9.25 -0.0508039 0.00122154 9.4 -0.0508111 0.00122141
9.55 -0.0508683 0.00122353 9.7 -0.0509767 0.00122639 9.85 -0.0511366 0.00122999 10
-0.0513478 0.00123431 -1.001 -0.05 0.0537316 -0.900807 -0.0501064 0.0535764 -0.800614 -0.0502131
0.053394 -0.700421 -0.0503434 0.0531778 -0.600229 -0.0505048 0.052926 -0.500035 -0.0506973 0.0526388
-0.425004 -0.050946 0.0524165 -0.349973 -0.0512842 0.0521274 -0.274943 -0.0516699 0.0518593 -0.199912
-0.0520894 0.0516335 -0.124879 -0.0524933 0.05149 -0.0498864 -0.0527611 0.051527 0.0251065 -0.0529828
0.0516929 0.100099 -0.0531998 0.0519274 0.175092 -0.0534261 0.05221 0.250087 -0.0536475 0.0525276
0.400077 -0.0540362 0.0531634 0.550067 -0.0544222 0.0536786 0.700057 -0.0547667 0.0541452 0.850047
-0.0550696 0.0545626 1.00003 -0.055339 0.0549304 1.14689 -0.0557084 0.055209 1.29374 -0.0560463
0.0554688 1.4406 -0.0563813 0.0556949 1.58745 -0.0567137 0.0558873 1.70481 -0.0569772 0.056014
1.71385 -0.0569983 0.0560224 1.72289 -0.0570195 0.0560308 1.73193 -0.0570407 0.0560391 1.74098
-0.0570621 0.0560472 1.75002 -0.0570836 0.0560553 1.90002 -0.0574414 0.0561886 2.05002 -0.0577949
0.0563046 2.20001 -0.0581446 0.0564031 2.35001 -0.0584904 0.0564838 2.50001 -0.0588323 0.056547
2.65001 -0.0591794 0.056599 2.80001 -0.0595261 0.0566444 2.95001 -0.059872 0.056682 3.10001
-0.0602171 0.056712 3.25001 -0.0605613 0.0567342 3.40001 -0.0609065 0.0567514 3.55001 -0.061253
0.0567679 3.70001 -0.061598 0.0567823 3.85001 -0.0619416 0.0567947 4.00001 -0.0622836 0.0568051
4.15 -0.0626234 0.056813 4.3 -0.0629669 0.0568219 4.45 -0.063309 0.0568301 4.6
-0.0636496 0.0568376 4.75 -0.0639888 0.0568442 4.9 -0.064323 0.0568486 5.05 -0.0646626
0.0568549 5.2 -0.0650009 0.0568608 5.35 -0.0653378 0.0568664 5.5 -0.0656733 0.0568715
5.65 -0.066002 0.0568741 5.8 -0.0663372 0.0568792 5.95 -0.0666711 0.0568841 6.1
-0.0670037 0.0568887 6.25 -0.0673352 0.0568931 6.4 -0.0676586 0.0568945 6.55 -0.0679892
0.056899 6.7 -0.0683187 0.0569032 6.85 -0.0686469 0.0569074 7 -0.0689739 0.0569113
7.15 -0.0692922 0.056912 7.3 -0.0696181 0.056916 7.45 -0.0699429 0.0569199 7.6
-0.0702665 0.0569237 7.75 -0.070589 0.0569274 7.9 -0.0709021 0.0569275 8.05 -0.0712233
0.0569313 8.2 -0.0715434 0.0569351 8.35 -0.0718623 0.0569388 8.5 -0.0721801 0.0569425
8.65 -0.0724881 0.0569426 8.8 -0.0728046 0.0569463 8.95 -0.0731198 0.05695 9.1
-0.0734339 0.0569536 9.25 -0.0737468 0.0569571 9.4 -0.0740497 0.0569566 9.55 -0.0743617
0.0569602 9.7 -0.0746731 0.0569637 9.85 -0.0749841 0.0569672 10 -0.0752945 0.0569706
-1.001 -0.05 0.106363 -0.900818 -0.0500783 0.106138 -0.800636 -0.0501545 0.105865 -0.700455
-0.0502574 0.105546 -0.600274 -0.0504307 0.105004 -0.50009 -0.0506742 0.104242 -0.424996 -0.0509619
0.103657 -0.349901 -0.0513112 0.103052 -0.274807 -0.0516649 0.102516 -0.199711 -0.0519642 0.102087
-0.124607 -0.0523077 0.101985 -0.0496046 -0.0525571 0.102098 0.0253975 -0.0527517 0.102328 0.100399
-0.0529333 0.102641 0.175401 -0.0531354 0.103038 0.250411 -0.0533575 0.103519 0.400346 -0.0537666
0.104519 0.550283 -0.0541738 0.105391 0.70022 -0.0545418 0.106175 0.850157 -0.0548789 0.106793
1.00009 -0.0551847 0.107244 1.15007 -0.055626 0.10751 1.30006 -0.0559232 0.107807 1.45005
-0.0561694 0.108083 1.60003 -0.0564095 0.108327 1.75002 -0.0566436 0.108538 1.90002 -0.0569516
0.108683 2.05002 -0.0571963 0.108838 2.20001 -0.0574352 0.108978 2.35001 -0.0576716 0.1091
2.50001 -0.0579054 0.109205 2.65001 -0.0581956 0.109274 2.80001 -0.0584439 0.109342 2.95001
-0.058691 0.109402 3.10001 -0.0589374 0.109455 3.25001 -0.059183 0.1095 3.40001 -0.0594714
0.109535 3.55001 -0.0597236 0.109569 3.70001 -0.0599739 0.1096 3.85001 -0.0602226 0.10963
4 -0.0604697 0.109657 4.15 -0.060752 0.109683 4.3 -0.0610042 0.109705 4.45
-0.0612544 0.109726 4.6 -0.0615031 0.109746 4.75 -0.0617503 0.109765 4.9 -0.0620261
0.109787 5.05 -0.0622763 0.109803 5.2 -0.0625247 0.109818 5.35 -0.0627718 0.109832
5.5 -0.0630174 0.109846 5.65 -0.0632868 0.109867 5.8 -0.0635344 0.109878 5.95
-0.0637805 0.109889 6.1 -0.0640253 0.1099 6.25 -0.0642688 0.10991 6.4 -0.0645321
0.109929 6.55 -0.0647768 0.109937 6.7 -0.0650202 0.109945 6.85 -0.0652622 0.109953
7 -0.0655031 0.10996 7.15 -0.0657606 0.109979 7.3 -0.0660021 0.109984 7.45
-0.0662424 0.10999 7.6 -0.0664814 0.109995 7.75 -0.0667192 0.11 7.9 -0.066971
0.110018 8.05 -0.0672093 0.110022 8.2 -0.0674462 0.110025 8.35 -0.067682 0.110029
8.5 -0.0679167 0.110033 8.65 -0.068163 0.11005 8.8 -0.0683977 0.110053 8.95
-0.0686311 0.110055 9.1 -0.0688633 0.110058 9.25 -0.0690944 0.11006 9.4 -0.069335
0.110077 9.55 -0.0695664 0.110078 9.7 -0.0697971 0.110079 9.85 -0.0700274 0.11008
10 -0.0702572 0.110081 -1.001 -0.05 0.158995 -0.900796 -0.0500888 0.15877 -0.800593
-0.0501936 0.158424 -0.700392 -0.0503558 0.157687 -0.600196 -0.0505883 0.156474 -0.499992 -0.0508827
0.154633 -0.42472 -0.051491 0.153031 -0.349437 -0.0519598 0.152111 -0.274149 -0.0523579 0.15155
-0.19886 -0.0527542 0.151258 -0.123699 -0.0530728 0.151312 -0.0487806 -0.0531967 0.151475 0.026137
-0.0532762 0.151956 0.101053 -0.0534169 0.152661 0.175968 -0.0535843 0.153459 0.250944 -0.053739
0.154287 0.400783 -0.0539516 0.155709 0.550624 -0.0544594 0.156887 0.700468 -0.0549321 0.157642
0.850313 -0.0553306 0.158241 1.00014 -0.0556977 0.158673 1.15012 -0.0562011 0.15892 1.30009
-0.0565599 0.159198 1.45007 -0.0568253 0.159467 1.60005 -0.0570136 0.159722 1.75002 -0.057196
0.159944 1.90002 -0.0574532 0.160099 2.05002 -0.0576468 0.160265 2.20002 -0.0578282 0.160418
2.35001 -0.0580008 0.160555 2.50001 -0.0581711 0.160674 2.65001 -0.0583981 0.160758 2.80001
-0.0585831 0.160841 2.95001 -0.0587659 0.160916 3.10001 -0.058947 0.160985 3.25001 -0.0591274
0.161046 3.40001 -0.0593508 0.161096 3.55001 -0.059538 0.161145 3.70001 -0.0597224 0.161193
3.85001 -0.0599046 0.161239 4 -0.0600852 0.161283 4.15 -0.0603009 0.161326 4.3
-0.0604866 0.161364 4.45 -0.0606697 0.161401 4.6 -0.0608506 0.161438 4.75 -0.0610301
0.161475 4.9 -0.0612379 0.161514 5.05 -0.0614204 0.161547 5.2 -0.0616006 0.161579
5.35 -0.0617789 0.161611 5.5 -0.0619559 0.161642 5.65 -0.0621562 0.16168 5.8
-0.0623351 0.161708 5.95 -0.062512 0.161736 6.1 -0.0626873 0.161764 6.25 -0.0628613
0.161792 6.4 -0.0630547 0.161828 6.55 -0.0632299 0.161854 6.7 -0.0634033 0.161879
6.85 -0.0635752 0.161903 7 -0.0637458 0.161928 7.15 -0.0639326 0.161963 7.3
-0.064104 0.161986 7.45 -0.0642737 0.162009 7.6 -0.0644419 0.162031 7.75 -0.064609
0.162053 7.9 -0.0647896 0.162088 8.05 -0.064957 0.162109 8.2 -0.065123 0.162129
8.35 -0.0652876 0.16215 8.5 -0.065451 0.162171 8.65 -0.0656257 0.162205 8.8
-0.0657891 0.162225 8.95 -0.065951 0.162244 9.1 -0.0661115 0.162263 9.25 -0.0662709
0.162282 9.4 -0.0664394 0.162315 9.55 -0.066599 0.162333 9.7 -0.0667578 0.16235
9.85 -0.0669158 0.162367 10 -0.0670734 0.162385 -1.001 -0.05 0.211626 -0.947629
-0.0500808 0.211469 -0.894259 -0.0501661 0.211278 -0.840889 -0.050256 0.211054 -0.787519 -0.0503905
0.210764 -0.724298 -0.0506346 0.210285 -0.679424 -0.0509127 0.209635 -0.634555 -0.0512482 0.208756
-0.589688 -0.0515876 0.20774 -0.544824 -0.051932 0.206587 -0.499928 -0.0522829 0.205293 -0.469445
-0.0525774 0.20424 -0.438964 -0.0528821 0.203124 -0.408478 -0.0531713 0.202135 -0.377988 -0.0534462
0.201268 -0.329706 -0.0538661 0.200029 -0.288725 -0.0542067 0.199123 -0.247739 -0.0545472 0.198433
-0.20675 -0.0548919 0.198056 -0.165759 -0.055201 0.197967 -0.124884 -0.0554355 0.198141 -0.0496126
-0.0557429 0.198854 0.0256571 -0.0558813 0.199805 0.100922 -0.0559915 0.201086 0.176185 -0.056135
0.202446 0.251488 -0.0562715 0.203601 0.25172 -0.0562718 0.203604 0.251952 -0.0562722 0.203607
0.252184 -0.0562725 0.20361 0.252416 -0.0562729 0.203613 0.252649 -0.0562733 0.203616 0.327173
-0.0563873 0.204592 0.401699 -0.0565031 0.205442 0.476226 -0.0566209 0.206165 0.550755 -0.0567672
[...]
POINT_DATA 2590
FIELD attributes 4
age 1 2590 float
0 0.00501121 0.0100224 0.0150336 0.0200448 0.025056 0.0288056 0.0325533 0.036301 0.0400488 0.0437965
0.0475449 0.0512905 0.0550361 0.0587817 0.0625272 0.070024 0.0775229 0.0850219 0.0925208 0.10002
0.10752 0.115019 0.122519 0.130019 0.137519 0.145019 0.152519 0.160019 0.167518 0.175018
0.182518 0.190018 0.197517 0.205017 0.212517 0.220017 0.227516 0.235016 0.242516 0.250015
0.257515 0.265015 0.272515 0.280014 0.287514 0.295014 0.302514 0.310014 0.317513 0.325013
0.332513 0.340013 0.347512 0.355012 0.362512 0.370012 0.377512 0.385011 0.392511 0.400011
0.407511 0.415011 0.42251 0.43001 0.43751 0.44501 0.452509 0.460009 0.467509 0.475009
0.482509 0.490009 0.497508 0.505008 0.512508 0.520008 0.527507 0.535005 0.542503 0.55
0 0.00502602 0.0100533 0.0150747 0.0200878 0.0250929 0.028832 0.0325652 0.0362916 0.0400112
0.0437246 0.0474308 0.05113 0.0548275 0.0585248 0.0622239 0.0696346 0.0770705 0.0845213 0.0919868
0.099467 0.106804 0.114142 0.121481 0.128822 0.134689 0.135141 0.135593 0.136045 0.136497
0.136949 0.14445 0.15195 0.159449 0.166948 0.174446 0.181944 0.189442 0.196939 0.204436
0.211933 0.21943 0.226927 0.234424 0.241921 0.249418 0.256916 0.264414 0.271911 0.279409
0.286907 0.294405 0.301903 0.309401 0.316899 0.324397 0.331896 0.339395 0.346893 0.354392
0.361891 0.36939 0.376889 0.384388 0.391887 0.399386 0.406886 0.414386 0.421885 0.429385
0.436884 0.444385 0.451885 0.459385 0.466885 0.474385 0.481886 0.489387 0.496887 0.504388
0.511889 0.51939 0.526891 0.534392 0.541893 0.549394 0 0.00502801 0.0100578 0.0150819
0.0200994 0.0251105 0.0288575 0.0325975 0.0363282 0.0400541 0.0437702 0.0474749 0.0511738 0.0548716
0.0585685 0.0622649 0.0696632 0.0770886 0.0845321 0.0919976 0.0994849 0.106988 0.114492 0.122
0.129508 0.137018 0.144533 0.152042 0.15955 0.167058 0.174565 0.182077 0.189583 0.197088
0.204594 0.212099 0.21961 0.227115 0.23462 0.242126 0.249631 0.257143 0.264648 0.272154
0.279659 0.287165 0.294678 0.302183 0.309689 0.317195 0.324701 0.332215 0.339721 0.347227
0.354733 0.36224 0.369753 0.37726 0.384766 0.392273 0.39978 0.407294 0.414801 0.422308
0.429815 0.437322 0.444837 0.452344 0.459851 0.467359 0.474866 0.482382 0.489889 0.497397
0.504905 0.512413 0.519929 0.527437 0.534945 0.542453 0.549961 0 0.00503011 0.0100663
0.0150996 0.020127 0.0251496 0.0289153 0.0326692 0.0364111 0.0401426 0.0438574 0.0475524 0.0512419
0.0549303 0.058618 0.0623092 0.0696963 0.0771197 0.0845736 0.092044 0.0995357 0.107048 0.114561
0.122079 0.129602 0.137125 0.144655 0.152178 0.159701 0.167224 0.174746 0.182274 0.189795
0.197315 0.204836 0.212356 0.219883 0.227403 0.234923 0.242444 0.249964 0.257491 0.265012
0.272533 0.280053 0.287574 0.295102 0.302623 0.310144 0.317665 0.325187 0.332715 0.340237
0.347758 0.35528 0.362801 0.37033 0.377852 0.385374 0.392896 0.400418 0.407947 0.415469
0.422992 0.430514 0.438037 0.445566 0.453089 0.460612 0.468134 0.475657 0.483188 0.490711
0.498234 0.505757 0.51328 0.520811 0.528335 0.535858 0.543382 0.550905 0 0.00268286
0.00536741 0.00805365 0.0107393 0.0139184 0.0161735 0.0184282 0.0206822 0.0229353 0.0251893 0.0267174
0.0282435 0.0297666 0.0312867 0.0336884 0.0357191 0.0377441 0.0397636 0.0417775 0.0437801 0.0474588
0.051139 0.0548203 0.0585083 0.062209 0.0622204 0.0622318 0.0622433 0.0622547 0.0622662 0.0659372
0.0696183 0.0733093 0.0770107 0.080722 0.0813155 0.0819089 0.0825024 0.083096 0.083675 0.0868308
0.0899891 0.0931501 0.0963136 0.0994792 0.107 0.114522 0.122049 0.12958 0.137117 0.14466
0.152197 0.159734 0.167271 0.174807 0.18235 0.189885 0.197421 0.204955 0.21249 0.220032
0.227567 0.235101 0.242636 0.250171 0.257713 0.265249 0.272784 0.280319 0.287855 0.295397
0.302933 0.310469 0.318004 0.32554 0.333083 0.340619 0.348155 0.355692 0.363228 0.370772
0.378308 0.385845 0.393381 0.400918 0.408462 0.415999 0.423536 0.431073 0.43861 0.446154
0.453692 0.461229 0.468767 0.476304 0.483849 0.491387 0.498925 0.506462 0.514 0.521546
0.529084 0.536622 0.54416 0.551699 0 0.00126445 0.00252927 0.00379478 0.00506109 0.00632823
0.0101158 0.0139116 0.0177191 0.0215332 0.0253298 0.0269105 0.0284811 0.0300448 0.0316014 0.032994
0.0333216 0.0336489 0.0339758 0.0343025 0.0346291 0.0364574 0.0382785 0.0400907 0.0418977 0.0436952
0.0454958 0.0473009 0.049118 0.0509401 0.0527663 0.0529099 0.0530534 0.053197 0.0533406 0.0534908
0.0551772 0.0568664 0.0585583 0.0602532 0.0619507 0.0656465 0.0693592 0.0730898 0.0768312 0.0805816
0.0843451 0.0881078 0.0918711 0.0956371 0.0994056 0.106941 0.114479 0.122021 0.129567 0.137117
0.144683 0.152236 0.159788 0.167341 0.174894 0.182454 0.190006 0.197558 0.205109 0.21266
0.220219 0.227769 0.23532 0.242872 0.250423 0.257981 0.265533 0.273084 0.280636 0.288187
0.295746 0.303298 0.31085 0.318402 0.325954 0.333513 0.341065 0.348617 0.35617 0.363722
0.371282 0.378834 0.386387 0.393939 0.401492 0.409052 0.416605 0.424158 0.431711 0.439264
0.446825 0.454378 0.461931 0.469484 0.477037 0.484598 0.492152 0.499705 0.507259 0.514813
0.522374 0.529928 0.537481 0.545035 0.552589 0 0.00126545 0.00253142 0.0037979 0.0050649
0.00633243 0.00822683 0.0101236 0.0120229 0.0139249 0.0158291 0.0177466 0.0196689 0.0215922 0.0235187
0.0254575 0.0264287 0.0273972 0.0283613 0.029321 0.0302804 0.0307558 0.0312295 0.0317012 0.0321708
0.0326845 0.0331401 0.0335937 0.0340453 0.0344949 0.034942 0.0358523 0.0367595 0.0376625 0.0385613
0.0394511 0.0403403 0.0412279 0.0421149 0.0430015 0.0438887 0.0452248 0.0465675 0.0479171 0.0492639
0.052883 0.0547117 0.0565542 0.058408 0.0602685 0.0621296 0.0640008 0.0658731 0.0677475 0.0696246
0.0715057 0.0733943 0.0752773 0.0771564 0.0790373 0.0809234 0.0840711 0.0872231 0.0903767 0.093532
0.0961977 0.0969413 0.0976851 0.098429 0.099173 0.0999172 0.107511 0.115106 0.122705 0.130308
0.137916 0.145548 0.153155 0.160758 0.16836 0.175962 0.183583 0.191183 0.198781 0.206378
0.213976 0.221593 0.22919 0.236786 0.244383 0.25198 0.259595 0.267191 0.274787 0.282383
0.289979 0.297593 0.305189 0.312784 0.32038 0.327976 0.335588 0.343184 0.350779 0.358374
0.36597 0.373581 0.381176 0.388771 0.396366 0.403961 0.41157 0.419165 0.42676 0.434354
0.441949 0.449557 0.457152 0.464746 0.472341 0.479935 0.487542 0.495137 0.50273 0.510324
0.517918 0.525524 0.533117 0.540711 0.548304 0.555898 0 0.00126279 0.00252626 0.00379076
0.00505644 0.0063233 0.00823334 0.0101454 0.0120612 0.0139803 0.0159048 0.0178221 0.0197523 0.0216955
0.0236513 0.0256296 0.0266296 0.0276304 0.0286315 0.0296318 0.030644 0.0308911 0.0311383 0.031385
0.0316298 0.0318196 0.0325705 0.033309 0.0340343 0.0347459 0.0354492 0.0358961 0.0363413 0.036785
0.0372272 0.0376635 0.0381008 0.0385353 0.0389674 0.0393988 0.0398278 0.0402596 0.0406915 0.0411235
0.0415561 0.0419913 0.0424266 0.0428613 0.0432965 0.0437325 0.0441708 0.0450474 0.0459333 0.0468297
0.0477371 0.0486615 0.0493871 0.0501118 0.0508388 0.051569 0.0524622 0.0526389 0.0528157 0.0529926
0.0531696 0.0533469 0.0543001 0.0552517 0.0562055 0.0571626 0.0581218 0.0590901 0.0600575 0.061026
0.0619975 0.0629707 0.0649382 0.0669008 0.0688582 0.07082 0.072765 0.0746964 0.0766424 0.0786033
0.0805689 0.0825394 0.0865011 0.0904546 0.0943822 0.0982933 0.102208 0.110037 0.117833 0.125559
0.133224 0.140893 0.148592 0.156269 0.163941 0.171608 0.179274 0.186956 0.19462 0.202283
0.209943 0.217603 0.225278 0.232937 0.240595 0.248252 0.255909 0.263579 0.271235 0.278891
0.286545 0.2942 0.301866 0.30952 0.317174 0.324826 0.332478 0.340141 0.347793 0.355444
0.363095 0.370745 0.378405 0.386055 0.393704 0.401352 0.409 0.416657 0.424305 0.431952
0.439598 0.447245 0.454898 0.462544 0.47019 0.477834 0.485479 0.49313 0.500774 0.508417
0.516059 0.523702 0.53135 0.538992 0.546633 0.554274 0.561916 0 0.00126442 0.00252948
0.0037952 0.00506156 0.00632918 0.00824623 0.0101657 0.0120885 0.0140175 0.0159588 0.0169288 0.0179018
0.0188779 0.0198572 0.0208397 0.0218274 0.0228232 0.0238279 0.0248416 0.0258658 0.0263834 0.0269028
0.0274258 0.0279525 0.0284855 0.028776 0.029068 0.0293622 0.0296591 0.0297569 0.0300569 0.0303582
0.0306604 0.0309623 0.0312726 0.0313686 0.0314646 0.0315608 0.0316572 0.0317277 0.0317635 0.0317993
0.0318351 0.0318709 0.031905 0.0320683 0.0322314 0.0323944 0.0325573 0.0327214 0.0329004 0.033079
0.0332571 0.0334322 0.0335614 0.0336669 0.0337717 0.033876 0.0339793 0.0340841 0.0341941 0.0343026
0.0344097 0.0345157 0.0346024 0.0346575 0.0347123 0.0347668 0.034821 0.0348739 0.0349713 0.0350684
0.0351649 0.035261 0.035355 0.0354775 0.0355985 0.0357181 0.0358366 0.0360301 0.03613 0.0362295
0.0363287 0.0364278 0.0365171 0.0366036 0.0366903 0.0367769 0.0368635 0.0370221 0.0371442 0.037266
0.0373877 0.0375091 0.0376289 0.0378478 0.0380651 0.0382825 0.0385004 0.0387147 0.0389329 0.0391504
0.0393683 0.0395866 0.0398047 0.0400259 0.0402452 0.0404649 0.0406847 0.0409054 0.0411258 0.0413459
0.0415663 0.0417874 0.042011 0.042236 0.042459 0.0426822 0.042906 0.0431309 0.043456 0.0437827
0.0441146 0.0444521 0.0446146 0.0447846 0.044955 0.0451258 0.0452971 0.0454696 0.0459582 0.0464388
0.0469195 0.0473956 0.0478937 0.0484125 0.0489209 0.0494303 0.0499445 0.050466 0.0505227 0.0505795
0.0506364 0.0506933 0.0507493 0.0517718 0.0528359 0.0539457 0.0550182 0.0561036 0.0573095 0.0584938
0.0596801 0.0608724 0.0620644 0.0624393 0.0628134 0.0631874 0.0635616 0.06398 0.0648151 0.0656415
0.0664657 0.0672923 0.0681175 0.0682123 0.068307 0.0684015 0.0684958 0.0685893 0.0696912 0.0707829
0.0718728 0.0729605 0.0740424 0.0751964 0.0763721 0.0775516 0.0787324 0.0799159 0.0812872 0.0826594
0.0840376 0.0854209 0.0871259 0.0879913 0.0888524 0.0897093 0.0905621 0.0914101 0.0959239 0.100413
0.104827 0.10915 0.113341 0.12152 0.129636 0.137679 0.14565 0.153537 0.161298 0.169059
0.176817 0.184572 0.192325 0.200074 0.207823 0.21557 0.223315 0.231059 0.237173 0.243288
0.249401 0.255514 0.261712 0.26332 0.264927 0.266535 0.268142 0.269749 0.277483 0.285218
0.292954 0.300689 0.308425 0.316151 0.323886 0.331621 0.339356 0.347091 0.35481 0.362545
0.37028 0.378015 0.385749 0.393462 0.401196 0.40893 0.416664 0.424398 0.432105 0.439838
0.447571 0.455304 0.463037 0.470738 0.47847 0.486202 0.493935 0.501667 0.509362 0.517093
0.524824 0.532555 0.540286 0.547975 0.555704 0.563433 0.571162 0.578891 0 0.00125411
0.00250917 0.00376554 0.00502335 0.00628273 0.00821404 0.010148 0.0120848 0.0140287 0.0159869 0.0169596
0.0179361 0.0189168 0.0199014 0.0208902 0.0218847 0.02289 0.0239069 0.0249356 0.0259773 0.0265059
0.0270377 0.0275762 0.0281216 0.0286759 0.0292414 0.0298146 0.0304009 0.0310011 0.0316278 0.0319467
0.0322654 0.0325849 0.0329054 0.0332404 0.0333121 0.0333838 0.0334555 0.0335272 0.0335856 0.0336611
0.0337352 0.0338085 0.0338812 0.0339426 0.0341142 0.0342826 0.0344478 0.0346093 0.0347764 0.0349188
0.0350585 0.0351955 0.0353293 0.0354484 0.0355689 0.0356889 0.0358084 0.0359262 0.0360382 0.0361553
0.0362694 0.0363805 0.0364911 0.036637 0.0367444 0.0368517 0.0369587 0.0370655 0.0371636 0.0373605
0.0375576 0.037758 0.0379615 0.0383847 0.0386192 0.038854 0.0390867 0.0393173 0.0395431 0.0400065
0.0404638 0.0409174 0.0413679 0.0418133 0.0422701 0.0427119 0.043157 0.0436052 0.0440564 0.0445293
0.0449962 0.0454745 0.0459576 0.0464485 0.0473134 0.0481984 0.0490975 0.0499857 0.0517793 0.0529009
0.0540246 0.0551719 0.0563392 0.0575393 0.0587962 0.0600259 0.061239 0.0624614 0.0636898 0.0645716
0.0654407 0.0663091 0.0671723 0.0683107 0.0686253 0.0689401 0.069255 0.0695705 0.0698864 0.0706272
0.071369 0.0721111 0.0728543 0.07376 0.0742278 0.0746954 0.0751628 0.0756289 0.076093 0.0773335
0.0785784 0.0798309 0.0810842 0.0823369 0.0848247 0.0873161 0.0897775 0.0921962 0.0945895 0.0994202
0.104204 0.108848 0.113356 0.117712 0.121463 0.1252 0.128922 0.132629 0.137333 0.141696
0.146008 0.150271 0.154485 0.15865 0.16641 0.174179 0.181946 0.189712 0.197477 0.205221
0.212984 0.220747 0.22851 0.236272 0.244005 0.251766 0.259526 0.267287 0.275047 0.282772
0.290531 0.29829 0.30605 0.313809 0.321527 0.329285 0.337044 0.344802 0.352561 0.360272
0.368029 0.375786 0.383543 0.391301 0.399006 0.406762 0.414517 0.422273 0.43003 0.437729
0.445483 0.453238 0.460992 0.468747 0.476441 0.484193 0.491946 0.499699 0.507452 0.515141
0.522891 0.530642 0.538393 0.546144 0.553827 0.561575 0.569322 0.57707 0.584819 0
0.00125903 0.00251874 0.00377913 0.00504095 0.0063044 0.00823309 0.0101647 0.0120993 0.0140412 0.0159973
0.0169702 0.0179472 0.0189283 0.0199135 0.0209031 0.0218976 0.0229027 0.0239194 0.0249479 0.0259894
0.0265184 0.0270503 0.0275879 0.0281323 0.0286859 0.0292489 0.0298195 0.0303996 0.0309923 0.0316145
0.0319306 0.0322474 0.0325646 0.0328818 0.0332115 0.033449 0.0336853 0.0339195 0.0341478 0.0342445
0.0343484 0.0344512 0.0345529 0.0346535 0.0347568 0.0349579 0.0351521 0.0353398 0.0355216 0.0356761
0.0357539 0.0358316 0.0359084 0.0359845 0.0360641 0.0360653 0.0360664 0.0360675 0.0360687 0.0360698
0.036214 0.0363568 0.0364983 0.0366383 0.036843 0.0369192 0.0369952 0.0370712 0.037147 0.0372189
0.0376763 0.0381388 0.038615 0.0390989 0.0395126 0.0399739 0.0404244 0.0408734 0.0413246 0.0417844
0.0422605 0.0427268 0.0431898 0.0436551 0.0441299 0.0446224 0.0451054 0.0455828 0.0460655 0.046562
0.0475955 0.0486514 0.0497194 0.0508072 0.0515702 0.0516427 0.051715 0.0517873 0.0518595 0.0519317
0.0530616 0.0542165 0.0553992 0.0566051 0.0578311 0.0591071 0.0603591 0.0615908 0.0628387 0.0640802
0.0647046 0.0653181 0.065929 0.0665383 0.0671511 0.0677779 0.0683949 0.0690024 0.0696119 0.070227
0.0714786 0.0727399 0.0739982 0.0752515 0.0764943 0.0772315 0.077962 0.0786935 0.0794267 0.0802433
0.0806977 0.0811524 0.0816074 0.0820634 0.0825093 0.0825598 0.0826103 0.0826608 0.0827112 0.0827617
0.085273 0.0877691 0.0902501 0.0926725 0.0950656 0.0998287 0.104542 0.109146 0.113637 0.117986
0.124819 0.131565 0.138195 0.144713 0.159262 0.162474 0.165686 0.168896 0.172107 0.175375
0.179902 0.184428 0.188954 0.19348 0.198005 0.205744 0.213488 0.221232 0.228975 0.236718
0.244446 0.252188 0.25993 0.267671 0.275412 0.283133 0.290873 0.298614 0.306355 0.314096
0.321809 0.329549 0.337289 0.345029 0.352769 0.360476 0.368215 0.375955 0.383694 0.391433
0.399134 0.406872 0.414611 0.422349 0.430087 0.437783 0.445519 0.453257 0.460994 0.468731
0.476421 0.484156 0.491892 0.499628 0.507364 0.515049 0.522783 0.530518 0.538252 0.545986
0.553666 0.561397 0.569129 0.57686 0.584593 0 0.00127992 0.00256048 0.0038423 0.00512559
0.00641038 0.00831681 0.0102258 0.0121375 0.0140556 0.0159859 0.016958 0.0179331 0.0189115 0.0198934
0.0208788 0.021873 0.0228762 0.0238892 0.0249122 0.0259474 0.0263893 0.0268328 0.0272796 0.0277299
0.0278537 0.0280032 0.0281529 0.0283027 0.0284526 0.0286028 0.0291462 0.0296939 0.0302487 0.0308124
0.031397 0.0314715 0.0315461 0.0316206 0.0316951 0.0317599 0.0319776 0.0321952 0.0324127 0.0326301
0.0328509 0.0329307 0.0330104 0.0330901 0.0331695 0.0332383 0.0334494 0.0336595 0.0338686 0.0340745
0.0342867 0.0343488 0.0344106 0.0344719 0.0345328 0.0345857 0.0345912 0.0345967 0.0346022 0.0346077
0.0346132 0.0348284 0.0350391 0.0352454 0.0354443 0.0356346 0.0356564 0.0356781 0.0356998 0.0357215
0.0357436 0.0358453 0.035946 0.0360457 0.0361467 0.0362909 0.0363847 0.0364779 0.0365704 0.036662
0.0367512 0.0368551 0.0369581 0.0370607 0.0371635 0.0373114 0.0374106 0.0375095 0.0376085 0.0377083
0.0378058 0.0380176 0.0382275 0.0384369 0.0386455 0.0388576 0.0390774 0.0392928 0.0395039 0.039715
0.0399289 0.0401449 0.0403592 0.0405727 0.0407867 0.0410031 0.0412239 0.0414413 0.0416575 0.041874
0.0420914 0.0423101 0.0425273 0.0427444 0.0429619 0.0431805 0.0436252 0.0440703 0.0445185 0.0449702
0.0454299 0.0459083 0.0463746 0.0468332 0.0472946 0.0477697 0.048252 0.0487325 0.0492129 0.0496971
0.0501893 0.0512052 0.0522268 0.0532603 0.0543473 0.0554518 0.0558101 0.0561687 0.0565283 0.0568895
0.0572706 0.0580676 0.0588641 0.0596602 0.06046 0.0612679 0.0624671 0.0636423 0.0648242 0.0660211
0.0672128 0.0684389 0.0696409 0.0708206 0.0719939 0.0731593 0.0736073 0.0740545 0.0745022 0.0749502
0.0753898 0.0757067 0.0760239 0.0763412 0.0766586 0.0769845 0.0773918 0.0777994 0.0782073 0.0786155
0.079024 0.0813686 0.083715 0.0860608 0.0883766 0.0906651 0.0951746 0.0997367 0.104206 0.108531
0.112749 0.12106 0.129341 0.13756 0.145606 0.153483 0.161224 0.168966 0.176704 0.184438
0.19217 0.199898 0.207625 0.215351 0.223075 0.230798 0.237328 0.243858 0.250387 0.256915
0.263449 0.264636 0.265824 0.267011 0.268199 0.269386 0.2771 0.284815 0.29253 0.300245
0.30796 0.315667 0.323381 0.331096 0.338811 0.346526 0.354227 0.361941 0.369656 0.37737
0.385085 0.39278 0.400493 0.408207 0.415921 0.423635 0.431325 0.439038 0.446751 0.454465
0.462178 0.469862 0.477574 0.485287 0.492999 0.500712 0.508391 0.516103 0.523814 0.531525
0.539236 0.546911 0.55462 0.562329 0.570039 0.577749 0 0.00127753 0.00255577 0.00383512
0.00511576 0.00639768 0.00829925 0.0102028 0.0121091 0.0140203 0.0159396 0.0169038 0.0178698 0.0188378
0.019808 0.0207805 0.0217542 0.022733 0.0237171 0.0247057 0.0256981 0.0266888 0.0276859 0.0286912
0.0296917 0.0307002 0.0307753 0.0308505 0.0309256 0.0310005 0.0310698 0.0319922 0.032895 0.0337773
0.0346385 0.0354971 0.035945 0.0363906 0.0368342 0.0372767 0.0377137 0.0381523 0.0385883 0.0390235
0.039458 0.0398867 0.0403198 0.040753 0.0411864 0.0416202 0.0420547 0.0424908 0.0429259 0.0433618
0.0437987 0.0442374 0.0451155 0.0460021 0.0468952 0.047796 0.0487216 0.0496687 0.0506082 0.0515411
0.0524809 0.0534302 0.0541551 0.0548853 0.0556178 0.0563519 0.057475 0.0576369 0.0577989 0.057961
0.0581233 0.0582856 0.0592693 0.0602524 0.0612359 0.0622192 0.0632014 0.0652014 0.0671882 0.0691644
0.0711502 0.0731334 0.0750918 0.0770763 0.0790756 0.0810789 0.0830841 0.0870962 0.0911252 0.0951225
0.0990748 0.103021 0.105864 0.108712 0.111568 0.114417 0.117768 0.122748 0.1277 0.132624
0.137522 0.142393 0.150103 0.157815 0.165526 0.173233 0.180939 0.188633 0.196333 0.204033
0.211731 0.219427 0.227114 0.234807 0.2425 0.250191 0.257881 0.265564 0.273251 0.280938
0.288624 0.296309 0.303988 0.311671 0.319353 0.327034 0.334715 0.342391 0.350069 0.357747
0.365424 0.3731 0.380773 0.388447 0.396121 0.403794 0.411466 0.419136 0.426807 0.434477
0.442146 0.449815 0.457481 0.465148 0.472815 0.480481 0.488146 0.49581 0.503473 0.511137
0.518799 0.526461 0.534121 0.541781 0.549441 0.557101 0.56476 0 0.00127409 0.0025488
0.00382396 0.00510035 0.00637796 0.00827386 0.0101719 0.0120722 0.0139756 0.015883 0.0177923 0.0197068
0.0216262 0.0235503 0.0254824 0.0264532 0.0274211 0.028384 0.029342 0.0299597 0.030978 0.0319887
0.0329889 0.0339789 0.0349572 0.0358661 0.0367717 0.0376732 0.0385717 0.0394613 0.0403519 0.041241
0.0421289 0.043016 0.0439023 0.0456794 0.0474739 0.0492829 0.0511016 0.0529367 0.0537966 0.0546578
0.0555211 0.0563864 0.0577251 0.0586197 0.0595161 0.0604143 0.0613144 0.0622159 0.0640915 0.06597
0.0678512 0.069735 0.0716208 0.0735163 0.075404 0.0772926 0.0791826 0.0810737 0.0848696 0.0886647
0.0924642 0.0962682 0.100086 0.107785 0.115487 0.123144 0.130763 0.138398 0.146047 0.153693
0.161338 0.168982 0.176623 0.18427 0.191912 0.199554 0.207193 0.214832 0.222473 0.230111
0.237749 0.245385 0.25302 0.260659 0.268294 0.275929 0.283563 0.291196 0.298832 0.306465
0.314098 0.321729 0.32936 0.336994 0.344625 0.352255 0.359884 0.367513 0.375144 0.382773
0.390402 0.398029 0.405656 0.413285 0.420912 0.428538 0.436163 0.443788 0.451415 0.45904
0.466664 0.474288 0.481911 0.489536 0.497159 0.504781 0.512403 0.520023 0.527646 0.535267
0.542887 0.550507 0.558126 0 0.00127141 0.00254321 0.00381554 0.00508846 0.00636198 0.0101414
0.0139323 0.0177224 0.0215091 0.0252997 0.0257902 0.0262796 0.0267681 0.0272557 0.027685 0.0290748
0.0304594 0.0318388 0.0332131 0.0345849 0.036426 0.0382576 0.0400724 0.041883 0.0436886 0.0454998
0.0473085 0.0491185 0.0509372 0.0527672 0.0546034 0.0564411 0.0582816 0.0601249 0.0619709 0.065673
0.0693891 0.0731211 0.076868 0.0806186 0.084389 0.0881575 0.0919263 0.0956971 0.0994703 0.107
0.114528 0.122061 0.129609 0.137173 0.144751 0.152327 0.159904 0.167482 0.175058 0.182639