# vtk DataFile Version 2.0
sampleSurface
ASCII
DATASET POLYDATA
POINTS 2021 float
-0.500032 0 0.11501 -0.499951 3.38813e-21 0.0392727 -0.789037 8.47033e-21 0.120673 -0.500013 -1.35525e-20
0.193965 1.00003 0 0.0485099 1.00003 0 0.0478584 0.475202 0 0.0353615
0.250044 1.41878e-20 0.0305359 0.2506 -5.42101e-20 0.117067 0.251301 0 0.203885 0.364989
0 0.203772 1.75002 0 0.113255 1.75002 0 0.0564279 2.50001 6.89146e-18
0.059229 2.21354 0 0.250758 2.50001 0 0.252875 3.25001 -3.47927e-17 0.0598775
3.25001 -1.69407e-21 0.253888 4.00001 5.60566e-18 0.0599857 4 0 0.253986 4.75
-1.79088e-17 0.0599988 4.75 8.47033e-22 0.253998 5.5 -2.79246e-17 0.0599999 5.5 -4.23516e-22
0.253999 6.25 1.01187e-17 0.06 6.25 0 0.254 7 2.93732e-17 0.06
7 0 0.254 7.75 -2.65294e-17 0.06 7.75 0 0.254 8.5
1.8923e-17 0.06 8.5 0 0.254 9.25 -2.88552e-17 0.06 9.25 -5.29396e-23
0.254 10 -2.64698e-23 0.254 10 0 0.06 -4.24997 0 0.0599042
-5 0 0.0599861 -5 0 0.253986 -4.24997 0 0.253912 -3.49995
0 0.0593815 -3.49994 0 0.253441 -2.74993 0 0.0570188 -2.74991 0
0.251316 -1.99991 0 0.0492276 -1.99987 0 0.242776 -1.24992 -1.69407e-21 0.03
-1.24985 1.23328e-17 0.222327 -1.24989 3.38813e-21 0.125756 -0.874924 2.08116e-17 0.03 -0.874929
0 0.122356 -0.124951 -8.47033e-22 0.03 -0.499941 0 0.03 -0.124922 -8.47033e-22
0.0385291 1.00021 0 0.231242 0.625368 0 0.203537 0.25004 -2.11758e-22 0.03
1.75003 0 0.247334 1.92873 1.69407e-21 0.441438 2.50001 0 0.447397 3.25
-1.69407e-21 0.447898 4 0 0.447986 4.75 0 0.447997 5.5 -4.23516e-22
0.447999 6.25 4.23516e-22 0.447999 7 0 0.448 7.75 -1.05879e-22 0.448
8.5 0 0.448 9.25 0 0.448 10 -2.64698e-23 0.448 -5
-8.47033e-22 0.447985 -4.24997 0 0.447919 -3.49993 0 0.4475 -2.74988 0
0.445609 -1.9998 6.77626e-21 0.437758 -1.24969 1.61411e-17 0.417681 -1.24976 -6.77626e-21 0.31973
-0.875161 7.70461e-18 0.216228 -0.875403 0 0.312476 -0.499924 -8.74138e-19 0.250039 -0.312433
0 0.250037 -0.312436 0 0.200025 -0.499924 0 0.200026 0.250062 3.38813e-21
0.24921 0.250039 -1.69407e-21 0.250046 0.250032 0 0.300069 0.437526 3.05948e-18 0.300066
0.625026 0 0.30005 1.00072 -8.23994e-18 0.326497 1.00196 0 0.423 1.75013
0 0.439575 1.75013 1.77877e-20 0.448245 1.00135 0 0.537141 1.00002 0
0.61834 1.74999 2.71051e-20 0.633055 2.49999 -3.38813e-21 0.641448 3.25 0 0.641907
4 -1.69407e-21 0.641985 4.75 -8.47033e-22 0.641996 5.5 -4.23516e-22 0.641998 6.25
0 0.641999 7 0 0.641999 7.75 0 0.642 8.5 5.29396e-23
0.642 9.25 -5.29396e-23 0.642 10 0 0.642 -5 0 0.641985
-4.24997 -1.69407e-21 0.641926 -3.49993 0 0.641557 -2.74988 0 0.639897 -1.99989
6.77626e-21 0.63382 -1.25099 2.55465e-18 0.614606 -1.25 -2.71051e-20 0.515981 -0.878244 0
0.50789 -0.875961 2.71051e-20 0.459694 -0.875609 0 0.410432 -0.498432 0 0.400603
-0.498071 -1.70762e-18 0.413126 -0.450805 0 0.413349 -0.45095 0 0.400955 0.250009
1.89735e-19 0.412703 0.25 2.71051e-20 0.425212 0.296872 1.00289e-18 0.425187 0.343754 -2.71051e-20
0.425153 0.343763 0 0.400146 0.250006 0 0.400175 1.00162 1.41488e-17 0.520353
-2 4.23516e-22 0.820145 -2.09502 -2.11758e-22 0.830091 -2 0 0.829497 -1.25123
0 0.813251 -1.25126 0 0.713737 -1.25101 6.77626e-21 0.62198 1.00059 0
0.714169 1.00094 0 0.809205 1.75018 0 0.82775 2.5 0 0.835521
3.25 0 0.835917 4 -1.69407e-21 0.835986 4.75 -8.47033e-22 0.835996 5.5
0 0.835998 6.25 0 0.835999 7 0 0.835999 7.75 0
0.836 8.5 0 0.836 9.25 0 0.836 10 0 0.836
-5 -8.47033e-22 0.835986 -4.24997 0 0.835935 -3.49995 0 0.835616 -2.74991
0 0.83419 -0.970118 0 0.703382 -0.87455 0 0.699864 -0.874264 -2.71051e-20
0.649852 -0.874033 -2.71051e-20 0.599873 -0.49698 0 0.599585 -0.497345 -9.21572e-19 0.612046
-0.450014 0 0.611892 -0.44938 2.71051e-20 0.599454 -2.00002 0 0.84097 -1.84639
-3.38813e-21 1.02215 -1.25185 0 1.01276 -0.896512 -3.38813e-21 0.900668 -0.908183 6.77626e-21
0.801076 -0.904022 -1.86347e-20 1.00093 0.624925 0 0.799916 0.249931 0 0.799891
0.249978 0 0.899916 0.249997 0 0.999939 0.999987 0 0.999957 1.75061
-2.1684e-19 1.02409 2.50003 0 1.0296 3.25 -1.69407e-21 1.02993 4 0
1.02999 4.75 0 1.03 5.5 0 1.03 6.25 2.11758e-22 1.03
7 0 1.03 7.75 0 1.03 8.5 5.29396e-23 1.03 9.25
0 1.03 10 0 1.03 -5 0 1.02999 -4.24998 0
1.02994 -3.49996 -8.47033e-22 1.02968 -2.74996 0 1.02849 -2.00026 0 1.02458
-0.87482 0 0.799893 -0.87491 0 0.899919 -0.49993 0 0.799862 -0.499958
7.6233e-19 0.849889 -0.312476 0 0.849885 -0.312472 0 0.799853 -1.25001 8.04681e-21
1.19601 -0.499979 5.29396e-23 1.10737 -0.731886 2.11758e-22 1.19997 -0.499981 0 1.19997
-0.124987 0 0.999933 -0.477759 -5.29396e-23 0.999933 -0.487556 -1.45584e-22 1.09995 0.250008
0 1.19997 1 0 1.19997 1.7507 0 1.22203 2.50003 -1.35525e-20
1.22368 3.25 0 1.22394 4 0 1.22399 4.75 4.23516e-22 1.224
5.5 0 1.224 6.25 2.11758e-22 1.224 7 0 1.224 7.75
1.05879e-22 1.224 8.5 0 1.224 9.25 0 1.224 10 2.64698e-23
1.224 -5 4.23516e-22 1.22399 -4.24999 -4.23516e-22 1.22395 -3.49998 0 1.22374
-2.75001 0 1.22279 -2.00077 0 1.21965 -1.24997 4.23516e-22 1.19997 -0.499969
-5.29396e-23 0.999933 -0.874942 0 0.999936 -0.499979 -1.32349e-23 1.09995 -2.75001 0
1.36967 -3.18711 4.23516e-22 1.41751 -2.75001 4.23516e-22 1.4171 -2.00072 3.38813e-21 1.29692
-2.00065 0 1.41474 -1.25823 6.35275e-21 1.40014 -0.980416 0 1.39998 -0.499986
0 1.39998 0.250009 0 1.39998 1 0 1.39998 1.75054 0
1.41682 2.50002 -1.35525e-20 1.41776 3.25 0 1.41796 4 4.23516e-22 1.41799
4.75 0 1.418 5.5 0 1.418 6.25 0 1.418 7
0 1.418 7.75 0 1.418 8.5 0 1.418 9.25 0
1.418 10 0 1.418 -5 0 1.41799 -4.24999 0 1.41797
-3.49999 -4.23516e-22 1.41781 -1.24998 0 1.39998 -2.80392 1.32349e-23 1.61143 -2.75
-1.32349e-23 1.6114 -2.0003 0 1.60983 -1.25396 2.64698e-23 1.60004 -1.12789 2.64698e-23
1.59999 -0.49999 1.05879e-22 1.59999 0.250008 0 1.59999 1.00001 4.23516e-22 1.59999
1.75038 0 1.61122 2.50002 0 1.61184 3.25 -4.23516e-22 1.61197 4
-4.23516e-22 1.61199 4.75 0 1.612 5.5 0 1.612 6.25 0
1.612 7 0 1.612 7.75 5.29396e-23 1.612 8.5 2.64698e-23 1.612
9.25 -1.32349e-23 1.612 10 -1.32349e-23 1.612 -5 0 1.61199 -4.24999
0 1.61198 -3.49999 0 1.61187 -1.24999 0 1.59999 -2.75 -1.32349e-23
1.63714 -2.64195 -2.11758e-22 1.80559 -2.00012 -8.47033e-22 1.80492 -1.25741 0 1.80004
-1.19082 -7.94093e-23 1.8 -0.499992 1.05879e-22 1.79999 0.250006 2.11758e-22 1.79999 1
0 1.8 1.75023 0 1.80561 2.50001 3.38813e-21 1.80592 3.25 0
1.80599 4 0 1.806 4.75 2.11758e-22 1.806 5.5 0 1.806
6.25 0 1.806 7 0 1.806 7.75 0 1.806 8.5
2.64698e-23 1.806 9.25 0 1.806 10 0 1.806 -5 0
1.806 -4.25 -2.11758e-22 1.80599 -3.49999 0 1.80594 -2.75 -1.05879e-22 1.8057
-1.24999 0 1.8 -2 -4.76456e-22 1.98532 -1.20969 -1.65436e-23 2 -0.499993
0 2 0.250006 0 2 1 0 2 1.75 0
2 2.5 0 2 3.25 0 2 4 0 2
4.75 -1.05879e-22 2 5.5 0 2 6.25 0 2 7
5.29396e-23 2 7.75 0 2 8.5 0 2 9.25 0
2 10 -1.32349e-23 2 -5 2.21817e-18 2 -4.25 1.05879e-22 2
-3.49999 0 2 -2.74999 0 2 -1.99999 -5.29396e-23 2 -1.24999
3.30872e-24 2 0.0956945 -5.42101e-20 0.203879 0.0632748 0 0.203876 0.0625511 0
0.250042 -0.403589 6.77626e-21 0.40138 -0.405779 7.7927e-19 0.38799 -0.406379 -6.77626e-21 0.375196
-0.499567 -1.35525e-20 0.375265 0.250006 -6.50521e-19 0.375144 0.156247 0 0.375155 0.156237
9.41901e-19 0.400212 0.203129 0 0.400201 0.249796 0 0.59991 0.249852 -1.0842e-19
0.587433 0.202953 0 0.587417 0.202888 6.50521e-19 0.599901 0.625121 -6.77626e-21 0.499953
0.717439 6.77626e-21 0.504955 0.625095 6.77626e-21 0.475379 0.343596 1.0842e-19 0.599918 0.343639
0 0.574939 0.296781 0 0.574964 0.249926 0 0.574977 0.62499 -4.2826e-18
0.549927 0.624917 4.55365e-18 0.599925 0.203133 0 0.412725 -0.449046 0 0.587135
-0.496581 5.42101e-20 0.587161 0.625036 -9.32414e-18 0.40006 0.625067 1.13164e-18 0.450032 0.249704
0 0.624881 0.155871 0 0.599866 0.155839 1.95156e-18 0.624853 0.249886 1.35525e-20
0.749873 0.062411 0 0.749846 0.0624478 -4.26227e-18 0.799869 -0.312472 0 0.749804
-0.499901 -3.38813e-21 0.749824 -0.691227 0 0.30453 -0.499912 3.02221e-18 0.300065 -0.875784
-3.11708e-18 0.361353 -0.592465 -2.71051e-20 0.40036 -0.499854 0 0.350135 -0.687111 1.35525e-20
0.350117 -0.68656 -2.71051e-20 0.40021 0.437526 -1.35525e-20 0.400108 0.437522 6.77626e-21 0.350086
0.250015 -2.51399e-18 0.35011 0.625027 3.38813e-21 0.350064 -0.592287 0 0.425286 -0.498048
0 0.425444 -0.873902 5.42101e-18 0.54992 -0.496663 0 0.574746 -0.591532 0
0.574798 -0.591729 0 0.599734 -0.149108 0 0.406489 -0.149477 -5.29396e-23 0.403592
-0.149678 0 0.406489 -0.451876 -2.1684e-18 0.499977 -0.451579 0 0.487563 -0.498366
0 0.487552 -0.498515 -1.0842e-19 0.499993 0.437553 0 0.450075 0.437532 -6.07153e-18
0.425113 0.254621 -1.25361e-19 0.496697 0.26485 -5.42101e-20 0.498023 0.264831 0 0.496529
0.254636 -2.30393e-19 0.49668 0.570241 0 0.499932 0.437665 -2.71051e-20 0.474991 0.437859
-2.71051e-20 0.49988 0.437372 -1.0842e-19 0.599915 0.249722 3.25261e-19 0.649874 0.43732 -5.42101e-20
0.649899 0.624872 0 0.649914 0.624883 -3.95734e-18 0.699913 0.43734 6.83047e-18 0.699894
0.249817 0 0.699869 -0.592227 0 0.624743 -0.498071 -2.71051e-20 0.624658 -0.499769
6.77626e-21 0.69979 -0.687025 0 0.699824 -0.150854 -1.03677e-18 0.599678 -0.151059 -6.77626e-21
0.605522 -0.127339 6.77626e-21 0.605681 -0.127867 0 0.599582 -0.406139 -4.40457e-20 0.699754
-0.406113 0 0.674749 -0.499634 0 0.674774 -0.18433 -4.23516e-22 0.674527 -0.163626
-4.23516e-22 0.678958 -0.165125 0 0.674537 -0.171868 4.23516e-22 0.674524 -0.14924 3.34737e-19
0.400169 -0.125737 0 0.400165 -0.12551 0 0.393854 -0.149076 -2.11758e-22 0.393877
-0.499925 -2.61564e-18 0.325088 -0.406241 0 0.325087 -0.4062 0 0.300069 -0.124901
0 0.300062 -0.218633 -3.27294e-18 0.299673 -0.218596 1.35525e-20 0.324664 -0.124851 0
0.325085 -0.126061 7.86047e-19 0.406473 -0.0785222 1.30782e-18 0.400166 -0.126118 3.38813e-21 0.41275
-0.0785648 0 0.412729 0.240678 1.0842e-18 0.500153 0.252614 -2.1684e-19 0.498317 0.252386
1.0842e-19 0.496231 0.241035 0 0.496114 0.228892 -1.35525e-20 0.496204 0.228835 6.77626e-21
0.498715 0.229819 2.71051e-20 0.500074 0.25248 0 0.499935 0.240657 -1.6263e-19 0.500957
0.264863 0 0.500154 0.264689 0 0.500951 0.437443 0 0.549896 0.437406
[...]
POINT_DATA 2021
FIELD attributes 2
p 1 2021 float
2.01258 1.44051 2.37154 4.36703 0.0591659 0.0570503 -4.2051 -6.04387 -7.69291 -6.16729 -4.32215
0.496204 0.464042 0.111673 0.326543 0.17479 0.00342207 0.0271875 0.00557706 0.0144597 0.00966637
0.0156182 0.00483966 0.00993772 0.000148885 0.00447518 -0.00143775 0.00224988 -0.00108721 0.0020841 -0.000460675
0.00211821 0.00057387 0.00333052 0 0 0.61469 0.610235 0.610084 0.614405 0.635574
0.634679 0.705541 0.702409 0.927638 0.924343 1.64212 1.76367 1.77902 2.23745 2.47803
-4.05571 1.37041 -4.1085 0.651635 -0.109973 -6.03364 0.572062 0.442485 0.189692 0.0292227
0.00733196 0.00947765 0.00561229 0.00100899 -0.000672753 -0.000315536 -0.000424317 0.00265027 0 0.609651
0.613635 0.632264 0.693374 0.903221 1.95748 2.03034 3.12984 3.87441 7.33028 -3.29141
-1.04654 4.58717 -5.73348 -5.72565 -2.26665 0.340104 0.828176 1.03185 0.926944 0.521506
0.517315 0.847755 0.881049 0.427831 0.167319 0.0230385 0.00234445 0.0065443 0.00438443 0.000421214
-0.000994841 -0.000444975 -0.000276551 0.00285396 0 0.608961 0.612445 0.628628 0.680684 0.862763
1.85121 2.13715 5.13594 5.5902 4.82761 32.5832 36.4677 52.0397 45.9969 4.76568
4.918 3.40548 3.43541 2.69353 4.09031 0.840869 0.8087 0.788224 0.805986 1.39746
1.78655 1.84643 0.993291 0.483007 0.349927 0.127717 0.0136137 0.000538492 0.00701722 0.00620933
0.0026073 0.00116222 0.00148663 0.00207911 0.00351332 0 0.608085 0.610964 0.624194 0.665803
3.25311 3.75164 4.68386 4.76188 34.3622 32.7007 44.6261 50.767 0.802153 0.781864
0.940426 1.70311 2.62799 1.14265 0.0812391 -4.88155 -5.30232 -2.74902 -0.228334 0.191132
0.0733192 -0.00545475 -0.0108169 -0.000854863 0.000961469 -0.0011429 -0.00170473 -0.000806544 0.000323348 0.00130149
0 0.607116 0.609342 0.619366 0.64982 0.740805 2.74757 1.73286 5.1898 3.2934
0.558129 -0.674343 0.698376 0.311399 0.313264 0.143223 -1.70983 0.673833 0.281871 -0.974364
-0.393863 0.0979701 0.0648195 -0.00286892 -0.0108214 -0.000966309 0.00152704 -0.000319953 -0.000866863 -1.09209e-06
0.00107126 0.00158158 0 0.606151 0.607731 0.614518 0.633691 0.677309 0.693138 0.823911
1.15955 0.324879 0.622462 0.613742 0.618836 0.657049 0.626149 0.567124 0.384379 0.0598522
-0.564469 -0.377735 0.0462042 0.0593201 -0.00430512 -0.0150736 -0.00432211 -0.000707327 -0.00205525 -0.00235081
-0.00131697 -0.000127035 0.00045475 0 0.605287 0.606276 0.610095 0.566468 0.607061 0.607101
0.591065 0.495973 0.427422 0.0775113 -0.435425 -0.348883 -0.00099403 0.0480725 -0.00787101 -0.0187311
-0.0064106 -0.00170118 -0.00264739 -0.00275989 -0.00162872 -0.000375457 0.000273853 0 0.604609 0.605103
0.606552 0.495466 0.606122 0.595538 0.570744 0.458318 0.427976 0.0868446 -0.365154 -0.332958
-0.0275172 0.0429778 -0.00827715 -0.019816 -0.0071624 -0.00211491 -0.00296451 -0.0030138 -0.0018367 -0.000558113
0.000136087 0 0.604171 0.604321 0.60421 0.599712 0.457195 0.564473 0.425824 0.0899381
-0.342779 -0.327807 -0.035812 0.0414451 -0.00837436 -0.0202336 -0.00752064 -0.00234345 -0.00312373 -0.00311126
-0.00189167 -0.000593705 0.000121513 8.02526e-05 0.604017 0.604039 0.603367 0.597192 0.563963 0.444898
-10.2873 -11.1451 -11.796 70.5119 60.1102 43.9216 29.6846 2.92469 1.6876 4.39915
5.06257 4.16795 4.58488 6.22164 5.43564 2.02296 1.73298 2.13848 2.97967 3.68873
3.38711 3.99817 2.24485 1.9132 6.0513 56.2555 39.4496 1.93353 2.2573 3.66516
4.77528 2.18681 -4.52968 -11.209 -9.84701 -3.1886 8.46609 7.00672 11.9109 4.75119
17.4676 20.8301 9.13965 10.5199 2.58112 1.49999 0.992602 1.65574 19.7344 36.9232
5.61405 39.6494 20.3326 18.8229 -58.6622 -58.4388 -58.6591 68.4698 68.383 47.5687
44.8026 3.40492 3.10941 -4.99347 0.358754 0.208726 -5.04297 2.58495 3.97325 3.9369
2.86776 1.84663 1.76472 1.62746 0.950372 0.763464 -1.35741 17.0086 28.1095 13.2982
7.27864 -56.5568 -56.3438 -58.7849 -58.7057 13.8802 19.1178 18.4874 -46.3001 -42.743
-44.4224 -45.1586 -58.1785 -57.4597 -57.4597 -57.5924 16.6215 15.904 12.0182 -29.3636
-27.9607 -45.3563 -37.0609 -58.7871 -45.9796 -58.6287 -48.1119 10.9902 4.29702 10.5024
11.842 9.09275 9.3683 9.65629 4.51962 11.1135 0.91456 0.744772 3.72547 3.48359
4.0621 4.32141 47.7612 68.3518 -58.8385 -56.4865 6.50412 11.1219 -51.4014 -52.6886
-58.4299 4.47838 6.29606 6.46178 6.49375 -31.436 -40.0451 -49.4549 -29.7988 64.4184
60.8041 41.6654 41.4135 -44.0555 -56.0023 -11.5332 -8.60662 -0.455531 -24.5497 -42.4395
42.9891 44.3157 64.3137 66.4851 -51.7626 -49.9199 -50.6913 0.334403 -9.67118 -12.7194
-11.6963 -21.682 -24.8764 -57.8418 44.0475 21.8567 22.1503 11.7052 12.0222 12.1953
13.1465 22.0272 44.511 10.7998 12.463 11.9034 13.2436 -58.6271 -58.6186 -58.1028
-58.0899 -57.4316 -56.8139 -56.456 45.8275 66.84 -58.2904 -58.5545 -58.9526 -58.1997
-29.8542 -35.0769 -32.8113 -13.7942 -1.62994 -4.94401 -50.6185 -50.2707 -57.9846 -13.2013
0.0951034 0.0155636 -13.4301 -58.2698 -56.8042 -51.3104 -12.5466 -10.2752 -3.76055 1.51843
-7.34247 -5.55901 -18.5889 -38.3077 -41.411 -36.322 -52.1772 -53.1961 -52.9264 -4.0772
-17.4872 -18.2309 -4.69265 -56.0393 -51.939 -56.0625 -3.52346 -9.24123 -16.5449 -11.7038
67.5377 46.875 -54.2241 -54.3931 -56.7859 -56.664 -56.1824 -53.7016 -57.0759 -53.1148
-55.9419 -58.8917 -59.0154 -59.0599 -32.1226 -77.072 -96.1087 -101.062 -103.297 -102.858
-48.597 -50.1667 -54.1794 -48.2347 -49.768 -97.9884 -99.3534 -71.2636 -34.2544 -58.4086
-59.2055 -58.8832 -56.2529 -57.1442 -57.2225 -57.1484 -57.551 7.10886 6.01989 8.91894
-56.0233 -55.7076 -55.9304 -55.4191 -55.5411 -55.8274 -56.2374 -55.1113 -55.0957 2.0588
1.84916 0.728934 1.2333 4.24234 4.6064 1.36843 -55.8338 -56.2908 -56.9389 5.80637
6.63803 2.79133 0.895965 3.15406 -32.1412 -38.1539 -37.3996 -31.7406 -54.5721 -55.0623
-57.9546 -57.633 -54.9483 -55.7777 -38.9414 -43.2941 -43.0935 -36.9513 -46.1092 -50.1509
-53.274 -53.4232 -52.263 123.589 131.447 146.79 146.878 -58.0963 -56.1393 -56.418
-57.8107 -57.6472 4.40712 2.1209 3.0228 4.62205 -9.74043 -3.92014 -5.87729 -8.91456
-11.8006 -39.0834 -36.8826 -25.5971 -27.332 -32.1439 -39.1032 -24.9201 -24.9563 31.1042
41.283 52.1252 37.9319 23.0759 19.2691 34.2511 26.1468 0.670556 0.828816 1.98801
34.1109 24.9273 17.1478 22.2669 2.90697 3.84889 4.49339 4.60286 3.7357 6.69726
6.80812 4.63546 -9.35479 -8.2387 -1.37721 -10.2357 14.6895 9.14905 10.8245 -54.6584
-56.8891 -57.0196 -54.8523 -82.6916 -81.411 -84.6503 -47.9373 -12.6817 -18.3332 -27.5859
-55.9813 -52.8127 -55.3312 -56.3978 -73.9674 -73.6927 -58.2645 -59.5446 -49.5549 -47.9277
-50.1961 -50.3507 3.76677 3.82561 -0.594096 6.00112 5.65806 4.67507 5.34533 5.73395
6.14366 -54.1211 -53.6753 -68.8053 -68.0171 79.0347 94.138 85.7413 112.13 106.444
88.8616 90.1724 161.86 164.194 153.377 121.645 98.4227 104.36 97.3202 117.66
-12.9248 -26.9858 -31.31 -5.88877 -26.1615 -52.0589 -41.7342 -6.3611 93.7258 101.224
86.8075 78.2756 96.7029 88.3991 107.609 148.465 158.216 167.406 165.143 106.629
102.905 159.633 -32.6239 -7.97501 -38.2983 -28.5257 -47.7007 140.212 140.082 115.606
110.586 110.25 115.513 139.607 138.991 108.141 167.237 170.844 172.012 172.303
173.712 186.649 186.838 174.818 173.27 -33.0614 -40.1604 -33.0172 -56.4267 -50.8431
-42.7214 -41.9637 -40.7052 -25.6465 2.73225 -2.65177 -0.703241 173.39 175.334 187.19
172.362 186.506 187.149 175.222 172.168 179.596 181.76 170.11 168.878 179.894
167.878 171.095 182.419 -52.574 -37.7911 -36.5476 -55.7017 -55.7369 -55.85 -36.3558
-46.2034 -36.464 -36.9399 -45.8218 -45.7885 -3.3643 -9.22796 -25.0968 -25.1476 -32.9957
-43.6145 -33.0232 -32.7135 -43.0291 -21.2864 -18.9816 -20.7224 115.423 140.141 138.125
139.036 114.68 109.308 170.035 169.909 170.477 167.74 136.399 108.397 113.575
137.15 -57.151 -54.2397 -52.841 -52.6678 -55.6789 -46.1339 90.2175 93.5089 78.7894
-14.916 -6.19825 -6.73654 -20.843 54.5303 56.3918 69.9959 73.6496 -55.7893 -55.0358
-55.3384 -55.7891 -56.9725 -57.2182 -57.361 -57.4646 -56.1404 -56.2413 -55.8344 -55.9302
-134.859 -109.298 -77.7592 -95.6598 -98.0185 -99.1612 -99.153 -83.2791 -78.8819 -92.429
-69.98 -84.5107 -132.189 -135.986 -128.081 -96.1059 -96.8784 -54.7923 -54.2547 -54.9518
-56.0447 -56.3336 -53.8823 -53.8096 6.76135 7.29534 13.7234 16.3419 13.8162 -50.942
-50.2133 -45.7722 -46.0062 -46.1207 -45.918 -45.8909 -45.6717 12.9562 12.6865 16.8864
8.29524 8.10156 9.66135 10.1406 10.166 8.52532 7.3427 8.10437 12.4136 15.718
13.7353 0.799504 -0.837638 -3.02761 7.05501 6.22386 5.10227 6.44358 7.16313 -52.4642
-53.3526 -56.3169 -55.6289 -48.6284 -49.6091 13.6129 15.576 16.9704 -46.785 -49.7001
-49.8333 -46.5013 -45.6534 11.3722 11.1147 11.1574 9.57972 6.87903 -6.96413 -5.72726
5.50172 6.31564 6.27398 -48.5048 -48.8475 146.526 148.552 140.977 137.01 113.442
118.375 125.778 121.268 184.611 185.887 182.189 178.431 -55.6889 -55.6196 -53.0241
-52.9351 169.638 183.358 185.057 172.995 174.452 186.572 171.03 182.144 169.626
179.278 -16.8946 -19.1902 -23.9405 -28.2192 -26.8126 -22.9429 -8.8046 -3.46928 -3.90802
-9.10506 -14.1374 -13.775 -1.03087 -9.06572 -9.93527 -15.0143 -18.1499 -8.20294 -8.96369
-24.9546 -20.2215 -9.66123 -0.78214 -3.05389 6.04267 -3.51469 6.0252 6.79113 3.39192
3.91867 4.63855 4.2 7.7094 6.08311 3.95609 5.81192 -18.918 -15.9981 -26.3385
-21.4677 -56.3526 -58.065 -58.6698 -58.5474 3.04449 3.11208 5.03855 5.5182 4.28735
4.88408 -14.5327 -40.2775 -57.2183 -65.4367 -53.2272 -31.8625 -58.8579 10.715 10.1747
10.1979 -2.35713 0.263111 12.0033 17.2625 9.5201 23.6112 20.5098 10.4152 1.71841
6.83931 8.33243 13.136 11.5687 6.80141 -53.4148 -44.0593 -49.9328 -13.0777 -43.9222
-24.9715 -60.6445 -83.7548 108.816 92.9131 106.295 108.494 112.837 111.991 172.885
172.009 173.26 172.576 171.279 185.966 185.966 185.201 -57.9559 -58.1678 174.485
-56.1393 -56.1375 -57.0645 -57.2275 -56.9379 -55.8542 -148.712 -135.743 -135.64 -132.166
-156.283 -135.555 -132.057 -132.372 -119.229 -114.827 -80.128 -73.128 -73.4083 -70.8112
-119.263 -120.917 -56.7122 -55.7083 -54.6104 -57.0815 9.46455 7.11392 10.6791 8.22497
10.994 12.0207 12.3918 13.3712 14.1564 -55.2534 -54.3196 -56.3044 -55.1191 -53.1639
-52.8988 -53.0137 -54.9452 -5.93532 -0.440891 -1.38612 -4.56491 9.21127 9.57844 6.83174
5.87985 7.58999 9.56928 8.81501 6.74094 1.33393 8.19003 7.08772 6.91893 8.67611
10.4035 9.2239 12.0383 11.3284 -54.6918 -55.1172 -55.2362 -55.3629 -55.5134 -55.3631
-54.8608 -52.8649 -54.1839 -54.1925 -54.2064 -51.1445 -52.5366 -73.8474 -73.0656 -57.6874
-59.9854 -77.6559 -68.502 -77.5239 -123.977 -128.568 -136.191 -79.5939 -97.6347 -107.45
-80.4568 -98.977 128.805 113.649 148.564 151.784 -54.6085 -53.8373 -54.945 -54.9263
-53.1402 143.892 167.877 146.151 -49.0337 -48.1933 -48.6402 -49.4181 -49.2353 -49.2527
-49.1794 -47.6644 -8.07602 -9.36633 -11.9111 -11.0211 -14.8668 -17.058 -19.2059 -16.9852
-17.9183 74.8169 85.5149 -58.5041 51.2362 76.537 65.0061 75.7183 61.1792 14.2234
11.4481 45.7389 36.7077 8.37002 9.20648 3.65765 5.32232 5.13262 7.82164 6.74053
7.1057 7.49103 8.30131 -52.8328 -52.3902 -52.1049 -52.6913 -0.996971 -0.49501 -1.07001
2.28986 5.71549 5.15815 7.10631 6.54065 -51.0214 -51.4394 -51.1648 138.233 136.321
171.192 184.783 189.089 189.376 186.866 185.342 -55.7281 -55.4376 -55.7598 -55.5931
-53.1593 -45.5989 -46.4263 -47.0559 -46.2619 -46.5962 -47.8911 -56.0136 -56.039 -56.6329
-57.2942 -56.9983 -56.9823 -57.1434 -56.7574 -55.1092 -115.802 -111.447 -134.043 -110.412
-133.727 -122.022 -123.385 -133.09 -56.1177 -57.4513 -55.8859 -54.5939 13.6773 12.3073
11.2754 12.4507 12.7083 13.3598 -36.8408 -36.3283 -31.5352 -30.9916 -41.8125 -42.3469
-46.4962 -46.1045 -51.1175 -51.1661 -45.5903 -52.1738 -51.8133 -6.12937 -0.900904 -11.3879
0.701163 2.13502 8.03633 7.57216 7.897 4.32058 10.7048 7.3797 8.7879 10.2644
10.9063 10.7968 10.9381 12.7 12.3735 2.40522 12.4334 14.8198 15.9868 3.89675
3.40571 3.14291 3.82318 -58.9438 -58.0915 -52.9244 -56.5168 -44.6979 -44.1641 -40.132
-44.4909 -45.9036 -49.9518 -51.1539 -49.596 -49.8188 -49.5776 -47.1324 -52.2092 -47.2225
4.21587 -48.2921 -49.5805 141.054 131.875 129.458 129.526 129.905 114.439 107.035
188.664 188.137 187.143 -50.7133 -51.0417 -1.39232 -0.82252 0.215496 -29.6884 -30.6034
186.058 186.893 180.37 183.33 181.876 181.505 -33.2398 -29.076 -3.16029 -7.81339
-5.93108 -3.2041 -24.8109 -13.686 -10.2573 -13.4677 -19.8901 -4.58154 80.8909 56.5258
60.8522 21.0713 21.4373 68.0196 110.709 10.1299 7.18615 -2.18352 -2.44248 6.83107
7.62438 7.9159 6.11406 6.5633 24.5404 16.3047 -0.407739 19.7667 -1.74414 3.50465
8.17306 8.09856 68.0231 110.211 -54.7772 -55.8575 18.1248 91.8282 109.135 100.395
92.4433 108.06 109.173 126.585 134.324 143.199 -55.7994 81.9319 73.9697 50.8448
12.5763 18.6304 16.802 -75.4434 -56.7945 -56.788 -56.7912 -55.1906 -55.1117 -59.8285
-55.3803 -59.8618 -60.4084 23.2977 -6.44658 5.95507 10.5457 10.7795 -1.36632 -1.47096
-2.5725 -55.6442 -54.1923 -0.984216 2.57145 2.8785 -57.5168 -56.9557 -56.1011 7.97306
7.66378 4.15138 -56.6098 41.6651 50.1108 -65.615 -58.0315 18.1155 15.6249 9.00707
6.92684 5.094 8.5335 6.97922 -54.1915 -54.1511 -52.9791 -52.9082 -55.8232 -52.249
-51.7764 -54.364 -54.6687 -54.6568 -54.1421 -55.2374 -54.8145 -54.6706 -54.4142 4.50489
-51.7669 -57.8517 -56.8206 100.555 129.201 144.747 155.214 168.115 162.956 160.767
148.766 188.248 -52.8205 -53.7499 -51.8929 -7.46147 -10.5022 -3.31049 -49.734 -49.755
-49.737 -50.0159 -53.1553 -47.2472 -48.796 -47.5639 -47.0691 -47.7723 28.8718 20.3045
-112.236 -119.841 -119.698 -120.332 -120.675 -73.8766 -96.4344 -73.88 13.3946 16.9986
-10.8721 12.0876 11.5299 -5.49187 -7.06851 4.11184 2.49526 0.983535 0.640596 -0.634111
-2.25693 -0.998835 4.14907 4.52998 0.606546 2.84875 4.50433 2.41099 1.3221 13.3339
17.5999 -50.0749 5.53438 12.7793 8.53828 16.4866 8.48819 11.1861 14.1986 15.9717
4.80532 5.01735 6.48442 5.91032 -2.02331 -3.92824 -6.15859 -6.05955 4.90126 1.71807
4.42001 9.45206 15.3424 16.5503 8.24938 5.69411 3.08529 2.77705 7.21096 10.6742
11.3285 11.9667 11.0968 5.73308 -3.47429 5.60844 -2.72128 3.25103 -3.48323 2.49619
10.988 8.33164 12.3534 6.98595 9.46249 11.3687 10.7692 10.4709 7.93644 8.62686
9.14418 9.38973 7.90231 7.37631 7.38546 6.03538 -5.39091 -8.88645 -7.11385 6.50252
5.91145 7.97011 6.27193 -9.09753 -10.8465 1.13785 7.07875 5.91333 -1.60652 5.70461
-136.047 -137.081 -137.373 10.2496 -55.5597 -54.5218 -54.5732 5.26781 9.93703 5.35721
8.4234 10.9985 -55.7187 -55.6856 -55.0545 -54.7465 -61.0312 -60.5291 -61.0124 -69.0624
-116.02 -119.83 -113.705 -120.542 -48.9937 -49.5219 -47.463 -47.1632 -47.4305 -47.1381
-14.6747 -14.6742 -17.0978 -52.643 -52.4582 -52.217 5.15415 1.53309 5.00048 4.97131
-52.0174 -52.4521 -52.5742 141.816 151.156 -55.2411 -50.7024 13.3714 13.9146 11.6124
7.23309 11.4902 18.7321 4.23937 3.35867 4.69729 3.69292 -53.3103 -57.152 -56.9834
-55.2043 7.77454 15.0861 11.1249 4.11284 4.2655 10.0786 8.83556 9.52114 8.63212
10.4077 12.4271 10.2705 5.85486 8.58052 8.23621 -54.1572 -50.1844 -48.5366 91.2368
80.2718 84.2331 66.7665 72.7486 -4.73825 -2.87665 0.349006 -1.4289 7.65262 8.16532
7.70434 8.29064 8.05266 7.54822 7.09352 116.839 106.803 94.7616 -73.8046 -57.2178
-55.887 -54.7556 -54.5501 -54.217 -54.176 163.485 139.768 161.894 162.003 7.65332
4.51999 10.6236 11.3272 7.22505 8.55013 7.45681 6.9212 6.18042 2.80677 -2.30024
4.7842 5.41978 5.99953 4.38986 6.68154 14.4123 9.04829 -12.6436 15.6389 14.2947
7.66315 10.7723 15.9231 9.13284 -12.5605 -13.4779 -11.5528 -2.77365 -4.77028 -12.9847
7.26198 5.32962 -14.5737 -16.1729 7.21506 4.89995 -0.94879 -3.8175 -55.0677 -45.9253
13.0818 1.9833 0.323883 -0.0618468 6.01355 5.57743 6.50559 6.09392 6.05029 5.63325
0.346266 6.3019 6.94451 -0.390312 5.75526 4.77901 7.22099 6.71293 6.14033 106.212
86.6822 122.026 123.812 5.21616 4.9455 3.50261 -55.2838 5.14572 6.12882 5.90711
-9.47082 -12.4134 -0.178073 6.29684 6.79114 5.44081 8.11418 5.24722 6.937 3.9366
37.7155 -53.2404 -55.0882 -54.5934 -54.5506 -54.6195 -2.89049 -4.26489 -12.4374 -12.3071
-12.3292 -3.35702 9.42372 3.17945 6.02771 7.11062 2.66072 2.44883 0.184836 -0.778874
-10.7568 -5.11095 -4.0077 -11.1187 -4.05947 -11.9692 5.63475 -11.2432 -12.2652 -2.35701
1.26732 6.39614 6.40907 5.84214 8.88922 0.291986 6.70575 -3.00109 -1.0033 4.40444
-0.717884 7.26023 4.87589 -9.76751 9.0234 -0.550849 6.19938 1.13296 1.51049 4.87774
5.23317 4.31808 5.04157 3.18493 7.68552 8.91817 5.49956 6.11373 1.0186 3.49163
11.105 5.58726 0.893898 -0.448584 3.67662 173.167 176.988 176.117 181.029 169.129
168.099 172.679 179.956 180.948 69.9976 74.1667 55.4201 -56.0999 -41.5445 -38.6673
-36.9316 -31.028 -43.8081 -51.9838 -51.6338 -55.2985 -46.7842 100.827 154.476 162.114
155.255 146.992 -56.5786 -56.175 -56.51 -56.282 -55.7844 -56.2424 -54.8598 -55.164
-55.0052 3.97252 -0.330608 171.244 -18.4497 186.021 190.268 189.416 -51.3316 -47.3272
182.754 185.885 186.06 -16.3528 -51.1694 85.2719 -54.9444 -55.0763 -55.3347 -55.302
-49.4764 189.391 -2.42559 189.506 185.527 189.1 7.37029 -64.3025 110.732 110.045
-55.8436 4.65977 -51.7487 -53.0521 -51.8623 -137.55 138.738 -54.7872 159.242 -51.9845
-120.755 -120.673 72.2822 6.98965 2.66097 168.086 164.699 -15.4145 139.855 191.111
190.007 185.408 189.462 190.795 189.79 172.801 191.166 186.787 189.961 191.201
0.614706 0.610242 0.635564 0.704672 0.9186 1.62269 2.20856 -3.98416 1.35744 0.0243497
-4.10016 -5.86966 0.408937 0.0902532 -0.00159133 0.00536749 0.0103851 0.00568838 0.000985114 -0.000650957
-0.000358226 0.000210851 0.00114054 0.000614392 -54.183 -52.4651 -134.007 -134.563 -48.008 -48.4742
-49.1524 -47.8477 -48.3569 -49.0786 -49.7449 -47.3463 -94.9918 -74.6615 -48.8633 -47.1927
-74.0997 -48.7867 -51.2901 -51.6459 -50.758 -99.6347 -111.258 -129.513 -119.828 -119.647

U 3 2021 float
20.006 -0.0457595 -0.216211 20.0437 -0.0306927 -0.0741507 19.9289 -0.0064183 -0.0965801 19.9352 -0.0557375
-0.607349 20.0176 -0.0592998 0.0399778 20.0179 -0.0591953 0.0400106 20.1683 -0.0781737 0.0575373
20.2331 -0.0863472 0.0655757 20.2786 -0.0912868 0.149379 20.2912 -0.11594 0.264065 20.2101
-0.117232 0.208815 19.9544 -0.0472116 0.0198518 19.9967 -0.054633 0.0183437 20.0037 -0.0529083
0.00696535 19.8528 -0.0245095 0.0176766 19.8516 -0.0213011 0.0141335 20.0059 -0.0526126 0.0018848
19.854 -0.0198999 0.00965391 20.0043 -0.0517931 0.000507991 19.8531 -0.0182592 0.0087596 20.0026
-0.05097 -2.31536e-05 19.8518 -0.016717 0.00845957 20.0011 -0.0502089 -0.000304011 19.8507 -0.0153915
0.00822405 19.9995 -0.049525 -0.000485141 19.8496 -0.0142394 0.00800699 19.9979 -0.0488688 -0.000610673
19.8485 -0.0131886 0.00781809 19.9962 -0.0482246 -0.000708566 19.8474 -0.0122337 0.00761867 19.9946
-0.0475941 -0.000743975 19.8464 -0.0113579 0.00752876 19.9926 -0.0469426 -0.000834392 19.8453 -0.0104367
0.00725064 19.8449 -0.00995862 0.00694991 19.9923 -0.0467335 -0.000875264 19.9996 -0.000341474 3.1295e-05
20 0 0 20 0 0 19.9996 -0.00034154 7.86828e-05 19.9983
-0.000788907 9.38926e-05 19.9984 -0.000798439 0.000278749 19.9942 -0.00155228 0.000368272 19.9941 -0.00151692
0.00100026 19.9787 -0.00279926 0.000337229 19.9795 -0.00312256 0.00358124 19.9463 -0.00545478 -0.00905839
19.9362 -0.00620975 -0.00794706 19.9388 0.00229867 -0.0143208 19.9275 -0.00543087 -0.0295092 19.9059
0.00526561 -0.0610103 20.2334 -0.0726065 0.00174571 20.0484 -0.0288485 -0.0567514 20.2355 -0.0716877
0.00499381 19.927 -0.0889943 0.0305431 20.0247 -0.118424 0.0820218 20.2328 -0.0863159 0.0650564
19.8547 -0.0296995 0.0234083 19.307 0.119865 0.0100995 19.3392 0.117282 0.0112113 19.3672
0.111564 0.0112685 19.3884 0.107273 0.0119561 19.4067 0.103486 0.0124626 19.4236 0.0998973
0.0126393 19.4395 0.0965057 0.0126452 19.4545 0.0933149 0.0125737 19.4688 0.0902732 0.012434
19.4819 0.0873912 0.0123204 19.4966 0.0845782 0.0120388 19.5053 0.0831348 0.0117793 20
0 0 19.9996 -0.000342109 0.000137343 19.9985 -0.000796779 0.000490449 19.9945 -0.00152282
0.00171997 19.98 -0.00324477 0.00603825 19.9197 -0.00876537 0.0107698 19.9194 -0.00793048 0.00104034
19.8497 -0.0165633 -0.0957513 19.7931 -0.0204927 -0.0681093 19.9547 -0.0508197 -1.02604 20.4344
-0.0671276 -0.937825 20.2159 -0.0531968 -0.510523 19.93 -0.0557567 -0.636871 20.31 -0.163488
0.453675 20.3104 -0.164369 0.457138 20.0992 -0.249132 0.582137 19.9892 -0.238361 0.301027