# vtk DataFile Version 2.0
sampleSurface
ASCII
DATASET POLYDATA
POINTS 2021 float
-0.500032 0 0.11501 -0.499951 3.38813e-21 0.0392727 -0.789037 8.47033e-21 0.120673 -0.500013 -1.35525e-20
0.193965 1.00003 0 0.0485099 1.00003 0 0.0478584 0.475202 0 0.0353615
0.250044 1.41878e-20 0.0305359 0.2506 -5.42101e-20 0.117067 0.251301 0 0.203885 0.364989
0 0.203772 1.75002 0 0.113255 1.75002 0 0.0564279 2.50001 6.89146e-18
0.059229 2.21354 0 0.250758 2.50001 0 0.252875 3.25001 -3.47927e-17 0.0598775
3.25001 -1.69407e-21 0.253888 4.00001 5.60566e-18 0.0599857 4 0 0.253986 4.75
-1.79088e-17 0.0599988 4.75 8.47033e-22 0.253998 5.5 -2.79246e-17 0.0599999 5.5 -4.23516e-22
0.253999 6.25 1.01187e-17 0.06 6.25 0 0.254 7 2.93732e-17 0.06
7 0 0.254 7.75 -2.65294e-17 0.06 7.75 0 0.254 8.5
1.8923e-17 0.06 8.5 0 0.254 9.25 -2.88552e-17 0.06 9.25 -5.29396e-23
0.254 10 -2.64698e-23 0.254 10 0 0.06 -4.24997 0 0.0599042
-5 0 0.0599861 -5 0 0.253986 -4.24997 0 0.253912 -3.49995
0 0.0593815 -3.49994 0 0.253441 -2.74993 0 0.0570188 -2.74991 0
0.251316 -1.99991 0 0.0492276 -1.99987 0 0.242776 -1.24992 -1.69407e-21 0.03
-1.24985 1.23328e-17 0.222327 -1.24989 3.38813e-21 0.125756 -0.874924 2.08116e-17 0.03 -0.874929
0 0.122356 -0.124951 -8.47033e-22 0.03 -0.499941 0 0.03 -0.124922 -8.47033e-22
0.0385291 1.00021 0 0.231242 0.625368 0 0.203537 0.25004 -2.11758e-22 0.03
1.75003 0 0.247334 1.92873 1.69407e-21 0.441438 2.50001 0 0.447397 3.25
-1.69407e-21 0.447898 4 0 0.447986 4.75 0 0.447997 5.5 -4.23516e-22
0.447999 6.25 4.23516e-22 0.447999 7 0 0.448 7.75 -1.05879e-22 0.448
8.5 0 0.448 9.25 0 0.448 10 -2.64698e-23 0.448 -5
-8.47033e-22 0.447985 -4.24997 0 0.447919 -3.49993 0 0.4475 -2.74988 0
0.445609 -1.9998 6.77626e-21 0.437758 -1.24969 1.61411e-17 0.417681 -1.24976 -6.77626e-21 0.31973
-0.875161 7.70461e-18 0.216228 -0.875403 0 0.312476 -0.499924 -8.74138e-19 0.250039 -0.312433
0 0.250037 -0.312436 0 0.200025 -0.499924 0 0.200026 0.250062 3.38813e-21
0.24921 0.250039 -1.69407e-21 0.250046 0.250032 0 0.300069 0.437526 3.05948e-18 0.300066
0.625026 0 0.30005 1.00072 -8.23994e-18 0.326497 1.00196 0 0.423 1.75013
0 0.439575 1.75013 1.77877e-20 0.448245 1.00135 0 0.537141 1.00002 0
0.61834 1.74999 2.71051e-20 0.633055 2.49999 -3.38813e-21 0.641448 3.25 0 0.641907
4 -1.69407e-21 0.641985 4.75 -8.47033e-22 0.641996 5.5 -4.23516e-22 0.641998 6.25
0 0.641999 7 0 0.641999 7.75 0 0.642 8.5 5.29396e-23
0.642 9.25 -5.29396e-23 0.642 10 0 0.642 -5 0 0.641985
-4.24997 -1.69407e-21 0.641926 -3.49993 0 0.641557 -2.74988 0 0.639897 -1.99989
6.77626e-21 0.63382 -1.25099 2.55465e-18 0.614606 -1.25 -2.71051e-20 0.515981 -0.878244 0
0.50789 -0.875961 2.71051e-20 0.459694 -0.875609 0 0.410432 -0.498432 0 0.400603
-0.498071 -1.70762e-18 0.413126 -0.450805 0 0.413349 -0.45095 0 0.400955 0.250009
1.89735e-19 0.412703 0.25 2.71051e-20 0.425212 0.296872 1.00289e-18 0.425187 0.343754 -2.71051e-20
0.425153 0.343763 0 0.400146 0.250006 0 0.400175 1.00162 1.41488e-17 0.520353
-2 4.23516e-22 0.820145 -2.09502 -2.11758e-22 0.830091 -2 0 0.829497 -1.25123
0 0.813251 -1.25126 0 0.713737 -1.25101 6.77626e-21 0.62198 1.00059 0
0.714169 1.00094 0 0.809205 1.75018 0 0.82775 2.5 0 0.835521
3.25 0 0.835917 4 -1.69407e-21 0.835986 4.75 -8.47033e-22 0.835996 5.5
0 0.835998 6.25 0 0.835999 7 0 0.835999 7.75 0
0.836 8.5 0 0.836 9.25 0 0.836 10 0 0.836
-5 -8.47033e-22 0.835986 -4.24997 0 0.835935 -3.49995 0 0.835616 -2.74991
0 0.83419 -0.970118 0 0.703382 -0.87455 0 0.699864 -0.874264 -2.71051e-20
0.649852 -0.874033 -2.71051e-20 0.599873 -0.49698 0 0.599585 -0.497345 -9.21572e-19 0.612046
-0.450014 0 0.611892 -0.44938 2.71051e-20 0.599454 -2.00002 0 0.84097 -1.84639
-3.38813e-21 1.02215 -1.25185 0 1.01276 -0.896512 -3.38813e-21 0.900668 -0.908183 6.77626e-21
0.801076 -0.904022 -1.86347e-20 1.00093 0.624925 0 0.799916 0.249931 0 0.799891
0.249978 0 0.899916 0.249997 0 0.999939 0.999987 0 0.999957 1.75061
-2.1684e-19 1.02409 2.50003 0 1.0296 3.25 -1.69407e-21 1.02993 4 0
1.02999 4.75 0 1.03 5.5 0 1.03 6.25 2.11758e-22 1.03
7 0 1.03 7.75 0 1.03 8.5 5.29396e-23 1.03 9.25
0 1.03 10 0 1.03 -5 0 1.02999 -4.24998 0
1.02994 -3.49996 -8.47033e-22 1.02968 -2.74996 0 1.02849 -2.00026 0 1.02458
-0.87482 0 0.799893 -0.87491 0 0.899919 -0.49993 0 0.799862 -0.499958
7.6233e-19 0.849889 -0.312476 0 0.849885 -0.312472 0 0.799853 -1.25001 8.04681e-21
1.19601 -0.499979 5.29396e-23 1.10737 -0.731886 2.11758e-22 1.19997 -0.499981 0 1.19997
-0.124987 0 0.999933 -0.477759 -5.29396e-23 0.999933 -0.487556 -1.45584e-22 1.09995 0.250008
0 1.19997 1 0 1.19997 1.7507 0 1.22203 2.50003 -1.35525e-20
1.22368 3.25 0 1.22394 4 0 1.22399 4.75 4.23516e-22 1.224
5.5 0 1.224 6.25 2.11758e-22 1.224 7 0 1.224 7.75
1.05879e-22 1.224 8.5 0 1.224 9.25 0 1.224 10 2.64698e-23
1.224 -5 4.23516e-22 1.22399 -4.24999 -4.23516e-22 1.22395 -3.49998 0 1.22374
-2.75001 0 1.22279 -2.00077 0 1.21965 -1.24997 4.23516e-22 1.19997 -0.499969
-5.29396e-23 0.999933 -0.874942 0 0.999936 -0.499979 -1.32349e-23 1.09995 -2.75001 0
1.36967 -3.18711 4.23516e-22 1.41751 -2.75001 4.23516e-22 1.4171 -2.00072 3.38813e-21 1.29692
-2.00065 0 1.41474 -1.25823 6.35275e-21 1.40014 -0.980416 0 1.39998 -0.499986
0 1.39998 0.250009 0 1.39998 1 0 1.39998 1.75054 0
1.41682 2.50002 -1.35525e-20 1.41776 3.25 0 1.41796 4 4.23516e-22 1.41799
4.75 0 1.418 5.5 0 1.418 6.25 0 1.418 7
0 1.418 7.75 0 1.418 8.5 0 1.418 9.25 0
1.418 10 0 1.418 -5 0 1.41799 -4.24999 0 1.41797
-3.49999 -4.23516e-22 1.41781 -1.24998 0 1.39998 -2.80392 1.32349e-23 1.61143 -2.75
-1.32349e-23 1.6114 -2.0003 0 1.60983 -1.25396 2.64698e-23 1.60004 -1.12789 2.64698e-23
1.59999 -0.49999 1.05879e-22 1.59999 0.250008 0 1.59999 1.00001 4.23516e-22 1.59999
1.75038 0 1.61122 2.50002 0 1.61184 3.25 -4.23516e-22 1.61197 4
-4.23516e-22 1.61199 4.75 0 1.612 5.5 0 1.612 6.25 0
1.612 7 0 1.612 7.75 5.29396e-23 1.612 8.5 2.64698e-23 1.612
9.25 -1.32349e-23 1.612 10 -1.32349e-23 1.612 -5 0 1.61199 -4.24999
0 1.61198 -3.49999 0 1.61187 -1.24999 0 1.59999 -2.75 -1.32349e-23
1.63714 -2.64195 -2.11758e-22 1.80559 -2.00012 -8.47033e-22 1.80492 -1.25741 0 1.80004
-1.19082 -7.94093e-23 1.8 -0.499992 1.05879e-22 1.79999 0.250006 2.11758e-22 1.79999 1
0 1.8 1.75023 0 1.80561 2.50001 3.38813e-21 1.80592 3.25 0
1.80599 4 0 1.806 4.75 2.11758e-22 1.806 5.5 0 1.806
6.25 0 1.806 7 0 1.806 7.75 0 1.806 8.5
2.64698e-23 1.806 9.25 0 1.806 10 0 1.806 -5 0
1.806 -4.25 -2.11758e-22 1.80599 -3.49999 0 1.80594 -2.75 -1.05879e-22 1.8057
-1.24999 0 1.8 -2 -4.76456e-22 1.98532 -1.20969 -1.65436e-23 2 -0.499993
0 2 0.250006 0 2 1 0 2 1.75 0
2 2.5 0 2 3.25 0 2 4 0 2
4.75 -1.05879e-22 2 5.5 0 2 6.25 0 2 7
5.29396e-23 2 7.75 0 2 8.5 0 2 9.25 0
2 10 -1.32349e-23 2 -5 2.21817e-18 2 -4.25 1.05879e-22 2
-3.49999 0 2 -2.74999 0 2 -1.99999 -5.29396e-23 2 -1.24999
3.30872e-24 2 0.0956945 -5.42101e-20 0.203879 0.0632748 0 0.203876 0.0625511 0
0.250042 -0.403589 6.77626e-21 0.40138 -0.405779 7.7927e-19 0.38799 -0.406379 -6.77626e-21 0.375196
-0.499567 -1.35525e-20 0.375265 0.250006 -6.50521e-19 0.375144 0.156247 0 0.375155 0.156237
9.41901e-19 0.400212 0.203129 0 0.400201 0.249796 0 0.59991 0.249852 -1.0842e-19
0.587433 0.202953 0 0.587417 0.202888 6.50521e-19 0.599901 0.625121 -6.77626e-21 0.499953
0.717439 6.77626e-21 0.504955 0.625095 6.77626e-21 0.475379 0.343596 1.0842e-19 0.599918 0.343639
0 0.574939 0.296781 0 0.574964 0.249926 0 0.574977 0.62499 -4.2826e-18
0.549927 0.624917 4.55365e-18 0.599925 0.203133 0 0.412725 -0.449046 0 0.587135
-0.496581 5.42101e-20 0.587161 0.625036 -9.32414e-18 0.40006 0.625067 1.13164e-18 0.450032 0.249704
0 0.624881 0.155871 0 0.599866 0.155839 1.95156e-18 0.624853 0.249886 1.35525e-20
0.749873 0.062411 0 0.749846 0.0624478 -4.26227e-18 0.799869 -0.312472 0 0.749804
-0.499901 -3.38813e-21 0.749824 -0.691227 0 0.30453 -0.499912 3.02221e-18 0.300065 -0.875784
-3.11708e-18 0.361353 -0.592465 -2.71051e-20 0.40036 -0.499854 0 0.350135 -0.687111 1.35525e-20
0.350117 -0.68656 -2.71051e-20 0.40021 0.437526 -1.35525e-20 0.400108 0.437522 6.77626e-21 0.350086
0.250015 -2.51399e-18 0.35011 0.625027 3.38813e-21 0.350064 -0.592287 0 0.425286 -0.498048
0 0.425444 -0.873902 5.42101e-18 0.54992 -0.496663 0 0.574746 -0.591532 0
0.574798 -0.591729 0 0.599734 -0.149108 0 0.406489 -0.149477 -5.29396e-23 0.403592
-0.149678 0 0.406489 -0.451876 -2.1684e-18 0.499977 -0.451579 0 0.487563 -0.498366
0 0.487552 -0.498515 -1.0842e-19 0.499993 0.437553 0 0.450075 0.437532 -6.07153e-18
0.425113 0.254621 -1.25361e-19 0.496697 0.26485 -5.42101e-20 0.498023 0.264831 0 0.496529
0.254636 -2.30393e-19 0.49668 0.570241 0 0.499932 0.437665 -2.71051e-20 0.474991 0.437859
-2.71051e-20 0.49988 0.437372 -1.0842e-19 0.599915 0.249722 3.25261e-19 0.649874 0.43732 -5.42101e-20
0.649899 0.624872 0 0.649914 0.624883 -3.95734e-18 0.699913 0.43734 6.83047e-18 0.699894
0.249817 0 0.699869 -0.592227 0 0.624743 -0.498071 -2.71051e-20 0.624658 -0.499769
6.77626e-21 0.69979 -0.687025 0 0.699824 -0.150854 -1.03677e-18 0.599678 -0.151059 -6.77626e-21
0.605522 -0.127339 6.77626e-21 0.605681 -0.127867 0 0.599582 -0.406139 -4.40457e-20 0.699754
-0.406113 0 0.674749 -0.499634 0 0.674774 -0.18433 -4.23516e-22 0.674527 -0.163626
-4.23516e-22 0.678958 -0.165125 0 0.674537 -0.171868 4.23516e-22 0.674524 -0.14924 3.34737e-19
0.400169 -0.125737 0 0.400165 -0.12551 0 0.393854 -0.149076 -2.11758e-22 0.393877
-0.499925 -2.61564e-18 0.325088 -0.406241 0 0.325087 -0.4062 0 0.300069 -0.124901
0 0.300062 -0.218633 -3.27294e-18 0.299673 -0.218596 1.35525e-20 0.324664 -0.124851 0
0.325085 -0.126061 7.86047e-19 0.406473 -0.0785222 1.30782e-18 0.400166 -0.126118 3.38813e-21 0.41275
-0.0785648 0 0.412729 0.240678 1.0842e-18 0.500153 0.252614 -2.1684e-19 0.498317 0.252386
1.0842e-19 0.496231 0.241035 0 0.496114 0.228892 -1.35525e-20 0.496204 0.228835 6.77626e-21
0.498715 0.229819 2.71051e-20 0.500074 0.25248 0 0.499935 0.240657 -1.6263e-19 0.500957
0.264863 0 0.500154 0.264689 0 0.500951 0.437443 0 0.549896 0.437406
[...]
POINT_DATA 2021
FIELD attributes 2
p 1 2021 float
2.00615 1.43514 2.36791 4.35825 0.0606929 0.058577 -4.20368 -6.0425 -7.69131 -6.16239 -4.3179
0.496626 0.464447 0.111791 0.326835 0.174979 0.00347193 0.0272845 0.00564141 0.0145336 0.00978289
0.0157222 0.00501317 0.0100933 0.000351356 0.00466481 -0.00125463 0.00242687 -0.000957257 0.00221297 -0.000380443
0.00220212 0.000619715 0.00338283 0 0 0.614066 0.609615 0.609463 0.61378 0.634931
0.634035 0.70484 0.70171 0.926739 0.923461 1.64042 1.76201 1.77719 2.23486 2.47525
-4.0587 1.36517 -4.11156 0.653215 -0.107217 -6.03228 0.572522 0.442808 0.189923 0.0293861
0.00742893 0.00956862 0.00573645 0.00116854 -0.000517787 -0.000204235 -0.000354257 0.00269072 0 0.609031
0.61301 0.631622 0.692682 0.902381 1.956 2.02864 3.1269 3.87133 7.31782 -3.30821
-1.05742 4.57825 -5.7241 -5.71618 -2.25441 0.344692 0.831276 1.03393 0.929189 0.521859
0.517662 0.848852 0.881138 0.428067 0.167543 0.0232219 0.00245191 0.00663093 0.00449214 0.000559784
-0.000858319 -0.000347124 -0.000216671 0.00288688 0 0.60834 0.611821 0.627988 0.680003 0.86198
1.8501 2.13576 5.13368 5.58749 4.82484 32.5678 36.453 52.0205 45.9758 4.78056
4.92843 3.41111 3.44353 2.69902 4.10593 0.842174 0.807972 0.787506 0.805261 1.39675
1.78566 1.84534 0.993396 0.483156 0.350164 0.127884 0.0137329 0.000607652 0.00707884 0.00629451
0.00271871 0.00127149 0.00156505 0.00212506 0.00353609 0 0.607464 0.61034 0.623557 0.665135
3.25208 3.75057 4.68241 4.76017 34.3597 32.6992 44.6252 50.7654 0.801431 0.781203
0.939829 1.70249 2.62725 1.14213 0.0809069 -4.88177 -5.30066 -2.74801 -0.227913 0.191329
0.0733791 -0.00542748 -0.0107968 -0.000818326 0.00102768 -0.00105392 -0.0016178 -0.000744135 0.000357797 0.0013152
0 0.606495 0.608718 0.618731 0.649164 0.740128 2.74683 1.73225 5.19067 3.29399
0.560055 -0.67052 0.697816 0.311373 0.313015 0.143112 -1.70885 0.674059 0.281868 -0.97389
-0.393459 0.0981152 0.0648344 -0.00286312 -0.0107973 -0.00091786 0.00159853 -0.000235785 -0.000789153 5.33447e-05
0.00109971 0.00159119 0 0.60553 0.607109 0.613887 0.633048 0.676667 0.692579 0.824089
1.15903 0.32486 0.621826 0.613111 0.618202 0.656417 0.625533 0.566606 0.383995 0.0597058
-0.56418 -0.377413 0.0463242 0.0593357 -0.00429094 -0.0150378 -0.00426844 -0.000641222 -0.00198381 -0.00228687
-0.00127313 -0.00010535 0.000461455 0 0.604667 0.605653 0.609467 0.565951 0.606435 0.606474
0.590468 0.495485 0.426988 0.0773504 -0.43522 -0.348623 -0.000879839 0.0480965 -0.00785015 -0.0186927
-0.0063602 -0.00164282 -0.00258465 -0.00270275 -0.00158836 -0.000354356 0.000282252 0 0.603988 0.604481
0.605926 0.494979 0.605496 0.594921 0.570157 0.457847 0.427529 0.0866761 -0.364996 -0.33273
-0.0274027 0.0430081 -0.00825315 -0.0197779 -0.00711364 -0.00205852 -0.00290309 -0.00295721 -0.00179588 -0.000535539
0.000146414 0 0.60355 0.603699 0.603585 0.59909 0.456724 0.56389 0.425374 0.0897671
-0.342637 -0.32759 -0.0356964 0.0414777 -0.00834937 -0.0201957 -0.00747182 -0.00228671 -0.00306175 -0.00305424
-0.00185043 -0.000570481 0.000132531 8.25691e-05 0.603396 0.603417 0.602742 0.596572 0.56338 0.444433
-10.2831 -11.1411 -11.7881 70.4687 60.049 43.863 29.6646 2.94449 1.71885 4.43078
5.08574 4.14124 4.55723 6.18715 5.40149 2.02577 1.73542 2.14252 2.96626 3.67515
3.36948 3.97329 2.24502 1.91269 6.07324 56.2532 39.4465 1.93745 2.26262 3.63666
4.73199 2.14891 -4.53304 -11.2086 -9.84536 -3.18101 8.46788 7.00182 11.8978 4.74798
17.4605 20.8124 9.13442 10.5147 2.58644 1.50456 1.00801 1.65901 19.7275 36.9108
5.61193 39.6457 20.329 18.8198 -58.7222 -58.5089 -58.7195 68.4614 68.3736 47.5602
44.7951 3.41724 3.11805 -5.01572 0.357961 0.207595 -5.06534 2.58907 3.98778 3.94418
2.86133 1.82696 1.75828 1.62544 0.94869 0.758817 -1.36658 17.006 28.1082 13.2994
7.27735 -56.4553 -56.2512 -58.7175 -58.6392 13.8839 19.1226 18.4886 -46.2426 -42.6899
-44.3668 -45.0997 -58.26 -57.5181 -57.5197 -57.6785 16.6047 15.8736 11.995 -29.365
-27.9822 -45.3787 -37.0627 -58.8323 -45.9613 -58.6516 -48.0594 10.9976 4.29727 10.5199
11.8596 9.09859 9.37424 9.66253 4.523 11.1193 0.916632 0.750038 3.71973 3.47534
4.06677 4.32055 47.7541 68.3444 -58.7559 -56.3722 6.51211 11.1245 -51.4061 -52.6998
-58.3506 4.49228 6.30474 6.48211 6.51476 -31.4095 -40.0087 -49.4012 -29.7656 64.405
60.7889 41.6532 41.403 -44.0314 -56.0334 -11.5182 -8.57035 -0.429097 -24.5196 -42.4392
42.9841 44.3113 64.3098 66.4804 -51.7594 -49.9307 -50.6989 0.306304 -9.70309 -12.7342
-11.7014 -21.6802 -24.8857 -57.7926 44.0386 21.8507 22.145 11.7005 12.0168 12.1914
13.142 22.0223 44.5047 10.7973 12.4601 11.9002 13.2399 -58.601 -58.5919 -58.075
-58.0622 -57.4328 -56.8096 -56.4382 45.8173 66.8282 -58.2541 -58.5239 -58.9192 -58.1606
-29.7615 -34.9628 -32.672 -13.68 -1.55954 -4.87366 -50.5265 -50.1675 -57.9559 -13.082
0.169166 0.0854728 -13.3112 -58.2335 -56.7775 -51.247 -12.4295 -10.1645 -3.66642 1.59262
-7.40521 -5.64008 -18.6875 -38.3935 -41.4628 -36.3681 -52.2384 -53.2319 -52.9801 -4.16464
-17.5971 -18.3425 -4.7819 -56.044 -51.9887 -56.0782 -3.59504 -9.32296 -16.6349 -11.5894
67.5321 46.8692 -54.1147 -54.2726 -56.7115 -56.6131 -56.1238 -53.6033 -57.0053 -53.1666
-55.9017 -58.8952 -59.0279 -59.069 -32.0767 -77.0035 -96.0196 -100.967 -103.197 -102.757
-48.5256 -50.1841 -54.2163 -48.2223 -49.9794 -98.1783 -99.4621 -71.3095 -34.3511 -58.3965
-59.2109 -58.906 -56.2091 -57.1053 -57.1482 -57.0711 -57.491 7.1523 6.07748 8.96739
-56.0027 -55.6676 -55.8949 -55.3899 -55.5169 -55.7717 -56.1738 -55.0325 -55.0172 2.04157
1.83262 0.715331 1.22251 4.17201 4.54745 1.30535 -55.7815 -56.2588 -56.8927 5.81889
6.65097 2.79216 0.884713 3.15627 -32.0285 -38.0505 -37.283 -31.6111 -54.4288 -54.9238
-57.8582 -57.5489 -54.8728 -55.7229 -38.9408 -43.2875 -43.113 -36.9779 -46.0647 -50.092
-53.1555 -53.3058 -52.1689 123.594 131.455 146.796 146.884 -58.0689 -56.1667 -56.4315
-57.7727 -57.5812 4.49682 2.21973 3.13384 4.73037 -9.7784 -3.95961 -5.89732 -8.92593
-11.8087 -39.0634 -36.9092 -25.6383 -27.3344 -32.1396 -39.0806 -24.7713 -24.8313 31.1101
41.2902 52.13 37.9318 23.0756 19.3021 34.2716 26.1619 0.671954 0.830196 1.98849
34.0557 24.888 17.0636 22.1291 2.88486 3.82994 4.46964 4.57842 3.66875 6.65426
6.75664 4.5667 -9.34134 -8.22203 -1.37332 -10.2246 14.6874 9.14728 10.8223 -54.5827
-56.8419 -56.9722 -54.7766 -82.5874 -81.3055 -84.5476 -47.8694 -12.6577 -18.3088 -27.5477
-55.9817 -52.8034 -55.3413 -56.4296 -74.066 -73.8049 -58.4496 -59.6924 -49.465 -47.9559
-50.2042 -50.3922 3.75405 3.81782 -0.605766 6.00709 5.65748 4.66395 5.33742 5.74941
6.15248 -54.0788 -53.5993 -68.6907 -67.9 78.9946 94.0881 85.6842 112.1 106.408
88.8316 90.1477 161.847 164.178 153.356 121.623 98.4033 104.344 97.2977 117.634
-12.8652 -26.9184 -31.2264 -5.82797 -26.1067 -52.0491 -41.6992 -6.30507 93.731 101.228
86.8096 78.278 96.702 88.3997 107.612 148.469 158.218 167.407 165.144 106.626
102.903 159.637 -32.6643 -8.02367 -38.3394 -28.5492 -47.7174 140.205 140.074 115.598
110.578 110.238 115.502 139.597 138.981 108.127 167.228 170.834 172.004 172.296
173.708 186.646 186.835 174.814 173.266 -32.9099 -40.0378 -32.8709 -56.4051 -50.7769
-42.6255 -41.8637 -40.604 -25.5119 2.80681 -2.55778 -0.595493 173.386 175.331 187.188
172.359 186.504 187.148 175.219 172.17 179.598 181.762 170.111 168.879 179.895
167.877 171.095 182.42 -52.6278 -37.9003 -36.6581 -55.6751 -55.7381 -55.8268 -36.4441
-46.2797 -36.5286 -36.9673 -45.8691 -45.8394 -3.42161 -9.29179 -25.1938 -25.2219 -32.8521
-43.5043 -32.8988 -32.6017 -42.9351 -21.158 -18.8408 -20.6004 115.415 140.135 138.121
139.031 114.674 109.302 170.036 169.91 170.478 167.74 136.396 108.393 113.571
137.146 -57.0556 -54.0974 -52.7575 -52.5843 -55.6368 -46.1474 90.1188 93.3796 78.6149
-14.8779 -6.16108 -6.69648 -20.7984 54.5558 56.4181 70.0149 73.662 -55.8882 -55.1323
-55.4293 -55.8807 -57.0462 -57.2937 -57.4296 -57.5278 -56.0265 -56.1123 -55.6682 -55.7877
-134.74 -109.225 -77.6698 -95.5683 -97.9275 -99.058 -99.0497 -83.1751 -78.9846 -92.5795
-70.6591 -85.6819 -133.257 -136.777 -128.645 -96.2226 -97.038 -54.6859 -54.1268 -54.8055
-55.9432 -56.2319 -53.7647 -53.6743 6.83987 7.3917 13.7838 16.4233 13.8757 -50.8908
-50.1528 -45.6712 -45.9176 -46.0233 -45.8196 -45.7924 -45.5763 12.9174 12.654 16.8442
8.25192 8.05291 9.62621 10.1083 10.1342 8.49718 7.31096 8.0675 12.3877 15.6973
13.7142 0.757285 -0.867694 -3.05551 7.02653 6.19779 5.07398 6.40744 7.13394 -52.4613
-53.3249 -56.2787 -55.6145 -48.6352 -49.5886 13.6729 15.6473 17.0576 -46.6909 -49.6106
-49.7433 -46.4036 -45.5582 11.3477 11.0911 11.1335 9.55052 6.85422 -6.96977 -5.7335
5.48788 6.29203 6.24802 -48.5119 -48.8284 146.481 148.506 140.92 136.96 113.334
118.298 125.709 121.179 184.605 185.882 182.182 178.423 -55.6278 -55.5678 -52.9738
-52.8796 169.636 183.358 185.057 172.994 174.45 186.571 171.029 182.144 169.625
179.279 -16.9374 -19.1981 -23.9528 -28.1872 -26.7958 -22.9053 -8.65744 -3.33954 -3.79272
-8.97457 -13.99 -13.607 -1.04172 -9.07042 -9.93979 -15.029 -18.1545 -8.23622 -8.98878
-24.9617 -20.2405 -9.65651 -0.779981 -3.05206 6.07989 -3.45025 6.06252 6.82891 3.36916
3.90281 4.62671 4.18676 7.73695 6.11258 3.96471 5.82417 -18.9061 -15.9841 -26.3155
-21.4458 -56.4347 -58.1473 -58.7292 -58.593 3.04231 3.11114 5.05893 5.539 4.30219
4.90332 -14.5802 -40.3187 -57.2479 -65.4542 -53.2709 -31.9243 -58.8984 10.7497 10.2054
10.2287 -2.40259 0.246608 11.9754 17.2209 9.49394 23.7438 20.6248 10.452 1.71607
6.8325 8.32115 13.1091 11.5511 6.77712 -53.445 -44.0094 -49.8585 -13.0532 -43.8794
-24.9377 -60.5876 -83.6779 108.674 92.7105 106.192 108.355 112.738 111.869 172.881
172.004 173.256 172.572 171.273 185.962 185.963 185.197 -57.9022 -58.1287 174.486
-56.1667 -56.1654 -57.1215 -57.2866 -56.9983 -55.6738 -150.377 -137.21 -137.09 -133.908
-158.063 -136.991 -132.779 -133.094 -119.779 -115.169 -80.4992 -73.1627 -73.5026 -70.8855
-119.499 -121.255 -56.7557 -55.7561 -54.6418 -57.1381 9.5417 7.17398 10.7185 8.25995
11.0359 12.0678 12.4406 13.4256 14.2169 -55.2372 -54.3042 -56.2401 -55.0403 -53.0782
-52.8149 -52.9255 -54.8641 -5.94447 -0.45816 -1.39576 -4.57493 9.18291 9.5506 6.80791
5.85692 7.57526 9.55176 8.79423 6.72552 1.28079 8.1475 7.03354 6.8743 8.70772
10.4406 9.25924 12.0929 11.3728 -54.6503 -55.0753 -55.103 -55.2287 -55.3803 -55.2337
-54.736 -52.6905 -54.0165 -54.0252 -54.0421 -51.014 -52.4013 -73.7345 -72.9689 -57.5797
-59.8601 -77.5469 -68.3869 -77.4344 -123.857 -128.442 -136.07 -79.4801 -97.5302 -107.347
-80.3448 -98.8709 128.748 113.582 148.518 151.742 -54.522 -53.7274 -54.8576 -54.8518
-53.0687 143.889 167.875 146.148 -48.9186 -48.0867 -48.5221 -49.2925 -49.1004 -49.1182
-49.0454 -47.568 -8.08408 -9.36639 -11.8974 -11.0151 -14.8718 -17.0389 -19.1745 -16.9669
-17.8888 74.821 85.5212 -58.4616 51.2604 76.5442 65.0098 75.5343 60.9967 13.7386
10.7609 45.5204 36.5191 8.32352 9.16891 3.63401 5.29531 5.10375 7.77137 6.70517
7.07272 7.45763 8.25925 -52.6806 -52.2378 -51.9662 -52.5575 -0.996365 -0.482618 -1.0538
2.29034 5.70815 5.15038 7.10509 6.535 -50.8831 -51.2869 -51.0111 138.193 136.272
171.185 184.778 189.084 189.371 186.861 185.337 -55.7134 -55.4133 -55.7334 -55.5448
-53.1168 -45.5091 -46.3363 -46.9692 -46.1779 -46.5112 -47.8003 -56.0976 -56.1227 -56.7125
-57.2263 -56.9212 -56.9051 -57.0661 -56.6715 -54.9595 -115.686 -111.335 -135.364 -111.994
-134.338 -122.466 -123.937 -133.771 -56.201 -57.3904 -55.8435 -54.4318 13.7511 12.3682
11.346 12.5342 12.7596 13.415 -36.6978 -36.175 -31.3613 -30.8305 -41.6795 -42.1993
-46.3688 -45.9851 -51.0426 -51.0904 -45.4486 -52.087 -51.7258 -6.1403 -0.919104 -11.3915
0.723378 2.1558 8.02747 7.56093 7.88523 4.32683 10.6893 7.36727 8.77602 10.2328
10.8761 10.768 10.9093 12.6757 12.3463 2.42806 12.4062 14.7999 15.9639 3.88026
3.38988 3.1256 3.80552 -58.8602 -58.0211 -52.8456 -56.4493 -44.6388 -44.1253 -40.0982
-44.4519 -45.8473 -49.8883 -51.0758 -49.5472 -49.7608 -49.5289 -46.9969 -52.1229 -47.1282
4.20427 -48.2503 -49.5222 140.996 131.803 129.401 129.446 129.826 114.337 106.913
188.66 188.134 187.138 -50.6679 -50.9894 -1.24991 -0.679217 0.35206 -29.5105 -30.4407
186.059 186.893 180.37 183.331 181.878 181.507 -33.2247 -29.0539 -3.01537 -7.63646
-5.76827 -3.05274 -24.6236 -13.4825 -10.0761 -13.2747 -19.6991 -4.58518 80.858 56.5087
60.8491 21.0648 21.4331 68.0091 110.7 10.1603 7.19824 -2.23755 -2.49774 6.85857
7.65275 7.94007 6.13778 6.58947 24.5461 16.3126 -0.386752 19.7772 -1.72279 3.50439
8.18094 8.10331 68.0166 110.204 -54.6323 -55.7276 18.1342 91.4924 108.991 100.41
92.463 108.077 109.187 126.595 134.335 143.208 -55.7614 81.5105 73.4795 50.2821
12.6111 18.6687 16.84 -75.3552 -56.8386 -56.8321 -56.8355 -55.2962 -55.2225 -59.9614
-55.4734 -59.918 -60.5106 23.4273 -6.52997 5.97546 10.5938 10.8223 -1.37749 -1.48103
-2.5935 -55.5079 -54.025 -0.991767 2.55964 2.86714 -57.4616 -56.8931 -56.058 8.00465
7.69259 4.16972 -56.5424 41.69 49.5458 -66.9393 -59.1816 17.3183 14.854 8.9809
6.90248 5.0672 8.50552 6.95379 -54.0573 -54.0218 -52.8385 -52.7587 -55.7404 -52.1269
-51.6454 -54.4817 -54.7817 -54.7692 -54.2695 -55.3434 -54.9175 -54.7837 -54.5296 4.50033
-51.6362 -57.714 -56.6796 100.513 129.146 144.713 155.177 168.094 162.926 160.737
148.737 188.244 -52.7384 -53.6493 -51.9234 -7.35482 -10.3876 -3.19644 -49.6053 -49.6326
-49.5993 -49.8686 -53.0657 -47.1586 -48.6859 -47.4694 -46.9796 -47.6793 28.9048 20.3384
-112.127 -119.721 -119.577 -120.211 -120.554 -74 -96.6201 -74.0037 13.4494 17.0873
-10.8685 12.0585 11.5019 -5.50925 -7.07847 4.07157 2.46327 0.950834 0.613261 -0.65865
-2.2783 -1.02519 4.11881 4.51014 0.582267 2.82438 4.48306 2.38528 1.29863 13.3894
17.6946 -49.9874 5.51215 12.7677 8.52723 16.4665 8.50757 11.1847 14.1926 15.963
4.78462 5.00075 6.51018 5.92722 -2.04282 -3.96115 -6.20949 -6.10963 4.92373 1.73169
4.4244 9.45083 15.3247 16.5209 8.24509 5.7105 3.10059 2.78799 7.21059 10.6624
11.3142 11.9541 11.0941 5.74938 -3.47267 5.62468 -2.71907 3.26602 -3.48161 2.51015
11.0089 8.34006 12.3871 7.01454 9.48678 11.4128 10.8114 10.5111 7.97135 8.63669
9.15876 9.40893 7.94231 7.39894 7.41009 6.06238 -5.4163 -8.91955 -7.13639 6.53558
5.93657 8.00398 6.30525 -9.13123 -10.8882 1.14963 7.10298 5.93794 -1.60328 5.721
-137.375 -137.943 -138.141 10.3007 -55.5169 -54.4807 -54.5274 5.25508 9.91629 5.33598
8.39699 11.0401 -55.6747 -55.646 -55.0003 -54.6896 -60.9045 -60.3972 -60.882 -68.9449
-115.904 -119.709 -113.594 -120.423 -48.8675 -49.3917 -47.3721 -47.075 -47.3381 -47.0496
-14.655 -14.6542 -17.0708 -52.4897 -52.3054 -52.0651 5.15569 1.53928 5.00747 4.97876
-51.8659 -52.2989 -52.4205 141.754 151.108 -55.2063 -50.6572 13.4272 13.9943 11.586
7.22208 11.4607 18.7081 4.24812 3.36493 4.70602 3.70394 -53.1784 -57.2427 -57.0444
-55.3151 7.77796 15.0731 11.1229 4.10844 4.25682 10.0914 8.84189 9.52724 8.63755
10.4158 12.4282 10.2776 5.85208 8.59984 8.2474 -54.0242 -50.0493 -48.4357 91.2554
80.2942 84.2505 66.792 72.7735 -4.78671 -2.90417 0.340845 -1.44298 7.67343 8.18166
7.72632 8.30527 8.06646 7.56489 7.10965 116.85 106.809 94.7683 -73.9282 -57.3438
-56.0639 -54.8873 -54.7419 -54.3505 -54.3413 163.48 139.762 161.89 162 7.75861
4.64012 10.718 11.4298 7.24432 8.57847 7.47514 6.94048 6.19305 2.77762 -2.35944
4.7977 5.43751 6.021 4.38078 6.68686 14.4668 9.07127 -12.7381 15.6073 14.2724
7.63812 10.7495 15.9949 9.15864 -12.6089 -13.526 -11.604 -2.7972 -4.81012 -13.0807
7.25745 5.33747 -14.6313 -16.2384 7.23153 4.87774 -0.969274 -3.81713 -54.9198 -45.8392
13.173 1.96356 0.297785 -0.0943902 6.03002 5.58808 6.52357 6.11054 6.06663 5.64755
0.375102 6.30944 6.94393 -0.36219 5.76638 4.78972 7.23426 6.72729 6.15303 106.229
86.7024 122.04 123.826 5.23345 4.96224 3.51395 -55.1339 5.16302 6.14401 5.9223
-9.55466 -12.5199 -0.188672 6.31514 6.80271 5.45748 8.14145 5.26414 6.96147 3.94926
36.9826 -53.0969 -55.2072 -54.7038 -54.6679 -54.7307 -2.91205 -4.28017 -12.4907 -12.36
-12.3821 -3.35608 9.42769 3.1859 6.01942 7.08612 2.63951 2.42813 0.163193 -0.795303
-10.8085 -5.13962 -4.03116 -11.1773 -4.08645 -12.0418 5.66109 -11.2819 -12.3179 -2.37779
1.25897 6.41993 6.43246 5.86051 8.89737 0.320816 6.72041 -3.06771 -1.04754 4.39508
-0.693654 7.28483 4.89563 -9.86576 9.06322 -0.59051 6.21731 1.09142 1.48001 4.87663
5.23637 4.31489 5.03619 3.18776 7.70844 8.95338 5.51458 6.12443 1.01967 3.48926
11.1199 5.60458 0.888068 -0.501121 3.68641 173.152 176.976 176.119 181.031 169.131
168.102 172.682 179.947 180.939 69.4395 73.6509 54.783 -56.1387 -41.4309 -38.5511
-36.7928 -30.8682 -43.7827 -51.8137 -51.4636 -55.2187 -46.7719 100.747 154.483 162.12
155.26 147.002 -56.5754 -56.1716 -56.5158 -56.2814 -55.8012 -56.2407 -54.895 -55.1975
-55.04 4.08581 -0.209621 171.242 -18.2827 186.018 190.265 189.413 -51.281 -47.2556
182.755 185.887 186.062 -16.4237 -51.0036 85.2803 -55.04 -55.1697 -55.4254 -55.3915
-49.4324 189.386 -2.29813 189.506 185.526 189.1 7.40496 -64.2299 110.6 109.908
-55.893 4.61029 -51.6848 -52.9778 -51.7974 -138.419 138.75 -54.8899 159.204 -51.9186
-120.634 -120.552 72.3054 7.00484 2.66675 168.09 164.703 -15.3968 139.846 191.11
190.005 185.41 189.457 190.794 189.789 172.798 191.165 186.785 189.959 191.2
0.614082 0.609621 0.63492 0.703971 0.917707 1.62101 2.206 -3.98715 1.35227 0.0258087
-4.09881 -5.86835 0.409303 0.0903582 -0.00153981 0.00544065 0.0105105 0.00586644 0.00118765 -0.00047137
-0.000235461 0.000280921 0.00117405 0.000620234 -54.0156 -52.2862 -133.89 -134.445 -47.905 -48.359
-49.0188 -47.7478 -48.2438 -48.9462 -49.5962 -47.2573 -95.1842 -74.7925 -48.739 -47.1045
-74.2306 -48.6635 -51.1164 -51.4704 -50.5909 -99.5334 -111.147 -129.394 -119.707 -119.528

U 3 2021 float
20.0064 -0.0456427 -0.215682 20.044 -0.0306128 -0.0739449 19.9292 -0.00634374 -0.0964724 19.9359 -0.0556792
-0.606432 20.0174 -0.0590588 0.0399744 20.0177 -0.0589538 0.0400073 20.1679 -0.0778741 0.0575377
20.2327 -0.0860227 0.065577 20.2782 -0.0909465 0.149293 20.2906 -0.115432 0.263748 20.2096
-0.116753 0.208547 19.9546 -0.0471052 0.0198714 19.9967 -0.0544178 0.0183717 20.0037 -0.0526975
0.00698664 19.8534 -0.0246379 0.0176782 19.8522 -0.0214159 0.0141364 20.0059 -0.0524143 0.00190199
19.8545 -0.0200013 0.00965601 20.0044 -0.051605 0.00052351 19.8536 -0.0183575 0.00875698 20.0026
-0.050788 -7.82814e-06 19.8523 -0.0168088 0.00845541 20.0011 -0.0500319 -0.00028822 19.8511 -0.0154765
0.00822057 19.9996 -0.0493529 -0.000468669 19.8501 -0.0143168 0.00800561 19.998 -0.0487013 -0.000593669
19.8489 -0.0132582 0.00781972 19.9963 -0.0480625 -0.000691394 19.8479 -0.0122966 0.00762298 19.9946
-0.0474381 -0.000726979 19.8468 -0.0114156 0.00753571 19.9927 -0.0467927 -0.000816982 19.8458 -0.0104895
0.00726115 19.8453 -0.0100085 0.00696261 19.9924 -0.0465848 -0.000857448 19.9996 -0.000340103 3.12828e-05
20 0 0 20 0 0 19.9996 -0.000340178 7.86627e-05 19.9983
-0.00078525 9.38045e-05 19.9984 -0.000794827 0.000278554 19.9942 -0.00154497 0.00036783 19.9941 -0.00151009
0.000999175 19.9788 -0.00278708 0.000334344 19.9796 -0.00310908 0.00357302 19.9465 -0.00542127 -0.00906675
19.9363 -0.00619308 -0.00798865 19.939 0.00232013 -0.0143391 19.9278 -0.00535955 -0.0295227 19.9063
0.00532768 -0.0610275 20.2332 -0.072401 0.00190782 20.0486 -0.0287731 -0.0565851 20.2354 -0.07148
0.00520025 19.9275 -0.0889156 0.0305102 20.0246 -0.118012 0.0818639 20.2324 -0.0859914 0.0650583
19.8554 -0.0298499 0.0234078 19.3079 0.119504 0.0101674 19.34 0.11698 0.0112673 19.368
0.111293 0.0113194 19.3891 0.10701 0.0119996 19.4073 0.103231 0.0125013 19.4242 0.0996554
0.0126753 19.4401 0.096278 0.01268 19.455 0.0931013 0.0126084 19.4693 0.0900729 0.0124689
19.4823 0.0872024 0.012356 19.497 0.0844006 0.0120752 19.5058 0.0829635 0.011816 20
0 0 19.9996 -0.000340763 0.00013728 19.9985 -0.000793286 0.000490072 19.9946 -0.00151641
0.00171795 19.9801 -0.00323125 0.0060263 19.9198 -0.00873434 0.0107044 19.9195 -0.0079137 0.000969952
19.8501 -0.0164804 -0.0957839 19.7934 -0.0204175 -0.0681905 19.9561 -0.050955 -1.0244 20.4353
-0.0677737 -0.933399 20.2163 -0.0532204 -0.508224 19.9308 -0.0556967 -0.635917 20.3092 -0.162797
0.453015 20.3095 -0.163676 0.456472 20.1007 -0.248869 0.582137 19.9906 -0.238152 0.300662