# vtk DataFile Version 2.0
tracks
ASCII
DATASET POLYDATA
POINTS 2545 float
-1.001 -0.05 0.0011 -0.900789 -0.0500138 0.00109694 -0.800577 -0.0500275 0.00109389 -0.700366 -0.0500412
0.00109085 -0.600155 -0.0500549 0.00108782 -0.499943 -0.0500685 0.0010848 -0.424945 -0.0500655 0.00107603
-0.349947 -0.0500945 0.00106231 -0.274949 -0.0501231 0.00104877 -0.19995 -0.0501514 0.0010354 -0.124952
-0.0501793 0.00102221 -0.0499538 -0.0501771 0.00102174 0.0250446 -0.0501668 0.0010281 0.100043 -0.0501564
0.0010345 0.175041 -0.050146 0.00104094 0.25004 -0.0501354 0.00104742 0.400037 -0.0501184 0.00105833
0.550035 -0.0500916 0.001068 0.700032 -0.0500646 0.00107775 0.85003 -0.0500374 0.00108759 1.00003
-0.0500099 0.00109752 1.15003 -0.0500081 0.00110304 1.30002 -0.0499922 0.00110675 1.45002 -0.0499762
0.00111047 1.60002 -0.0499602 0.0011142 1.75002 -0.0499441 0.00111795 1.90002 -0.0499432 0.00112055
2.05002 -0.0499341 0.00112153 2.20001 -0.0499249 0.00112251 2.35001 -0.0499157 0.00112348 2.50001
-0.0499065 0.00112446 2.65001 -0.0499062 0.00112555 2.80001 -0.0499014 0.0011255 2.95001 -0.0498967
0.00112546 3.10001 -0.0498919 0.00112541 3.25001 -0.0498872 0.00112537 3.40001 -0.0498872 0.00112587
3.55001 -0.0498851 0.00112552 3.70001 -0.049883 0.00112516 3.85001 -0.0498809 0.0011248 4.00001
-0.0498788 0.00112444 4.15 -0.0498791 0.00112484 4.3 -0.0498797 0.0011244 4.45 -0.0498802
0.00112396 4.6 -0.0498807 0.00112352 4.75 -0.0498813 0.00112307 4.9 -0.0498819 0.00112352
5.05 -0.0498847 0.0011231 5.2 -0.0498875 0.00112267 5.35 -0.0498902 0.00112224 5.5
-0.049893 0.00112181 5.65 -0.0498939 0.00112236 5.8 -0.0498982 0.00112196 5.95 -0.0499025
0.00112156 6.1 -0.0499067 0.00112116 6.25 -0.049911 0.00112076 6.4 -0.0499122 0.00112138
6.55 -0.0499175 0.00112101 6.7 -0.0499228 0.00112063 6.85 -0.0499281 0.00112026 7
-0.0499335 0.00111989 7.15 -0.0499349 0.00112054 7.3 -0.049941 0.00112016 7.45 -0.0499472
0.00111979 7.6 -0.0499533 0.00111941 7.75 -0.0499595 0.00111904 7.9 -0.0499611 0.00111967
8.05 -0.0499679 0.00111927 8.2 -0.0499747 0.00111886 8.35 -0.0499815 0.00111846 8.5
-0.0499884 0.00111805 8.65 -0.0499902 0.00111864 8.8 -0.0499976 0.00111821 8.95 -0.050005
0.00111778 9.1 -0.0500124 0.00111735 9.25 -0.0500197 0.00111692 9.4 -0.0500219 0.00111748
9.55 -0.0500416 0.00111607 9.7 -0.0500743 0.0011136 9.85 -0.05012 0.00111006 10
-0.0501786 0.00110544 -1.001 -0.05 0.0537316 -0.900807 -0.0499757 0.0535804 -0.800614 -0.0499412
0.0534033 -0.700421 -0.049904 0.0531834 -0.600228 -0.0498665 0.0529154 -0.500034 -0.0498287 0.0525995
-0.425003 -0.049915 0.0523051 -0.349973 -0.0500752 0.0518981 -0.274943 -0.0502551 0.0515075 -0.199913
-0.0504405 0.0511625 -0.124881 -0.0505876 0.0509067 -0.0498884 -0.0505662 0.0508701 0.0251044 -0.0504617
0.0509991 0.100097 -0.050341 0.0512033 0.175089 -0.0502223 0.0514584 0.250085 -0.0501048 0.0517465
0.400075 -0.0498802 0.0522688 0.550065 -0.0496545 0.0526929 0.700055 -0.0494378 0.0530647 0.850045
-0.0492303 0.0533838 1.00003 -0.0490321 0.0536499 1.11406 -0.0489534 0.053822 1.22809 -0.0488626
0.0539871 1.34212 -0.0487788 0.0541385 1.45615 -0.0487019 0.0542762 1.5595 -0.0486385 0.0543885
1.5976 -0.0486173 0.0544258 1.63571 -0.0485957 0.0544615 1.67381 -0.0485739 0.0544956 1.71191
-0.0485524 0.0545284 1.75002 -0.0485321 0.0545603 1.90002 -0.0484775 0.0546832 2.05002 -0.0484114
0.0547903 2.20001 -0.048349 0.054882 2.35001 -0.0482902 0.0549581 2.50001 -0.048235 0.0550187
2.65001 -0.0482187 0.0550714 2.80001 -0.0481876 0.0551159 2.95001 -0.0481596 0.0551541 3.10001
-0.0481347 0.0551861 3.25001 -0.0481129 0.0552119 3.40001 -0.0481148 0.0552367 3.55001 -0.0481095
0.0552573 3.70001 -0.0481072 0.0552767 3.85001 -0.0481078 0.055295 4.00001 -0.0481113 0.0553121
4.15 -0.0481277 0.0553317 4.3 -0.0481473 0.0553482 4.45 -0.0481703 0.0553654 4.6
-0.0481968 0.0553831 4.75 -0.0482269 0.0554015 4.9 -0.0482601 0.0554238 5.05 -0.048304
0.0554431 5.2 -0.048351 0.0554636 5.35 -0.048401 0.055485 5.5 -0.0484541 0.0555076
5.65 -0.0485019 0.0555345 5.8 -0.0485649 0.0555582 5.95 -0.0486307 0.0555827 6.1
-0.0486993 0.0556081 6.25 -0.0487706 0.0556343 6.4 -0.0488317 0.0556648 6.55 -0.0489105
0.0556917 6.7 -0.0489919 0.0557189 6.85 -0.0490759 0.0557466 7 -0.0491625 0.0557746
7.15 -0.0492358 0.0558066 7.3 -0.0493284 0.0558347 7.45 -0.0494233 0.0558626 7.6
-0.0495206 0.0558904 7.75 -0.0496202 0.0559181 7.9 -0.0497046 0.0559493 8.05 -0.0498092
0.0559763 8.2 -0.0499162 0.0560029 8.35 -0.0500254 0.056029 8.5 -0.050137 0.0560546
8.65 -0.0502321 0.0560834 8.8 -0.0503484 0.0561084 8.95 -0.0504673 0.0561331 9.1
-0.0505889 0.0561574 9.25 -0.050713 0.0561814 9.4 -0.0508204 0.0562085 9.55 -0.0509486
0.0562321 9.7 -0.051078 0.0562554 9.85 -0.0512086 0.0562784 10 -0.0513405 0.0563011
-1.001 -0.05 0.106363 -0.900818 -0.0499406 0.106148 -0.800636 -0.0498685 0.105887 -0.700454
-0.0497962 0.10557 -0.600274 -0.0497555 0.105007 -0.500089 -0.0497462 0.104203 -0.424998 -0.0498546
0.103535 -0.349907 -0.0499999 0.1028 -0.274816 -0.0501052 0.102092 -0.199724 -0.0501462 0.101487
-0.124628 -0.0502008 0.1012 -0.0496221 -0.0501227 0.101152 0.0253835 -0.0499591 0.101255 0.100389
-0.0497864 0.101453 0.175394 -0.0496342 0.101751 0.250409 -0.0495023 0.102149 0.400345 -0.049253
0.102925 0.550281 -0.0489983 0.103597 0.700217 -0.0487531 0.104192 0.850153 -0.048535 0.104649
1.00008 -0.0483437 0.10497 1.15007 -0.0482952 0.105184 1.30006 -0.0481467 0.105405 1.45005
-0.0479963 0.105595 1.60003 -0.0478522 0.105764 1.75002 -0.0477144 0.105913 1.90002 -0.047685
0.106002 2.05002 -0.0475862 0.106101 2.20001 -0.0474914 0.106184 2.35001 -0.0474025 0.106252
2.50001 -0.0473193 0.106306 2.65001 -0.0473196 0.106319 2.80001 -0.0472664 0.106347 2.95001
-0.047216 0.106369 3.10001 -0.047169 0.106385 3.25001 -0.0471254 0.106395 3.40001 -0.0471441
0.106381 3.55001 -0.0471187 0.106386 3.70001 -0.0470957 0.10639 3.85001 -0.0470757 0.106394
4 -0.0470586 0.106396 4.15 -0.0470918 0.106381 4.3 -0.0470913 0.106385 4.45
-0.0470937 0.106392 4.6 -0.0470996 0.106398 4.75 -0.047109 0.106406 4.9 -0.0471578
0.106398 5.05 -0.0471797 0.106411 5.2 -0.0472042 0.106425 5.35 -0.0472318 0.10644
5.5 -0.0472624 0.106457 5.65 -0.0473241 0.106459 5.8 -0.0473658 0.10648 5.95
-0.0474098 0.106503 6.1 -0.0474567 0.106527 6.25 -0.0475064 0.106551 6.4 -0.0475794
0.106562 6.55 -0.0476383 0.10659 6.7 -0.0476994 0.106619 6.85 -0.0477631 0.106648
7 -0.0478294 0.106677 7.15 -0.0479122 0.106695 7.3 -0.0479856 0.106726 7.45
-0.048061 0.106757 7.6 -0.0481388 0.106788 7.75 -0.0482191 0.10682 7.9 -0.0483104
0.10684 8.05 -0.0483966 0.106871 8.2 -0.0484848 0.106903 8.35 -0.0485753 0.106933
8.5 -0.0486681 0.106963 8.65 -0.0487677 0.106985 8.8 -0.0488657 0.107014 8.95
-0.048966 0.107044 9.1 -0.0490689 0.107073 9.25 -0.0491745 0.107102 9.4 -0.0492835
0.107125 9.55 -0.0493953 0.107153 9.7 -0.0495082 0.107182 9.85 -0.0496224 0.107209
10 -0.0497379 0.107237 -1.001 -0.05 0.158995 -0.900798 -0.0499598 0.158782 -0.800596
-0.0499119 0.158451 -0.700396 -0.0498815 0.157727 -0.600201 -0.0498766 0.156524 -0.49999 -0.0498865
0.154694 -0.424718 -0.0502763 0.152996 -0.349434 -0.0504768 0.151952 -0.274146 -0.0505522 0.151189
-0.198856 -0.0505837 0.15065 -0.123677 -0.0505149 0.150428 -0.0487655 -0.0502431 0.15027 0.0261459
-0.049937 0.150414 0.101057 -0.0497245 0.150849 0.175967 -0.0495324 0.151382 0.250932 -0.049344
0.151987 0.400773 -0.0489222 0.153141 0.550616 -0.0486937 0.1542 0.700461 -0.0485096 0.154815
0.850306 -0.0483466 0.155261 1.00014 -0.0482105 0.15557 1.15011 -0.048216 0.155774 1.30009
-0.0481222 0.155982 1.45007 -0.0480165 0.156149 1.60005 -0.047904 0.156281 1.75002 -0.0477977
0.156392 1.90002 -0.0478001 0.156442 2.05002 -0.0477328 0.156503 2.20002 -0.0476643 0.156543
2.35001 -0.0475976 0.156565 2.50001 -0.0475368 0.156573 2.65001 -0.0475599 0.156539 2.80001
-0.0475291 0.156521 2.95001 -0.0474983 0.156498 3.10001 -0.0474691 0.15647 3.25001 -0.0474433
0.156436 3.40001 -0.0474804 0.156377 3.55001 -0.047473 0.156338 3.70001 -0.0474657 0.156301
3.85 -0.04746 0.156265 4 -0.0474572 0.156227 4.15 -0.0475054 0.156172 4.3
-0.0475194 0.156138 4.45 -0.0475338 0.156108 4.6 -0.0475502 0.156081 4.75 -0.0475701
0.156054 4.9 -0.04763 0.156012 5.05 -0.0476626 0.155991 5.2 -0.0476956 0.155975
5.35 -0.0477304 0.155962 5.5 -0.0477683 0.155951 5.65 -0.0478376 0.155925 5.8
-0.0478867 0.155918 5.95 -0.0479363 0.155916 6.1 -0.0479876 0.155918 6.25 -0.0480418
0.15592 6.4 -0.0481195 0.155909 6.55 -0.048183 0.155914 6.7 -0.0482469 0.155924
6.85 -0.0483123 0.155936 7 -0.0483804 0.155948 7.15 -0.0484652 0.155949 7.3
-0.0485404 0.155963 7.45 -0.0486159 0.15598 7.6 -0.0486929 0.155999 7.75 -0.0487722
0.156017 7.9 -0.0488628 0.156025 8.05 -0.0489482 0.156044 8.2 -0.0490339 0.156064
8.35 -0.0491209 0.156086 8.5 -0.0492103 0.156107 8.65 -0.0493065 0.156119 8.8
-0.0494011 0.156139 8.95 -0.0494961 0.156162 9.1 -0.0495926 0.156185 9.25 -0.0496919
0.156209 9.4 -0.0497945 0.156226 9.55 -0.0499 0.156248 9.7 -0.0500058 0.156272
9.85 -0.0501123 0.156297 10 -0.0502201 0.156321 -1.001 -0.05 0.211626 -0.947808
-0.0500106 0.211476 -0.894616 -0.0500191 0.211292 -0.841424 -0.0500256 0.211076 -0.788232 -0.0500736
0.210783 -0.724621 -0.0502136 0.210281 -0.679682 -0.0504014 0.209598 -0.634748 -0.0506304 0.208685
-0.589817 -0.050853 0.207634 -0.544889 -0.0510704 0.206443 -0.499928 -0.0512838 0.205111 -0.471241
-0.0514655 0.204095 -0.442556 -0.0516565 0.203008 -0.413868 -0.0518328 0.202019 -0.385176 -0.0519953
0.201124 -0.347146 -0.0521893 0.200029 -0.302669 -0.0523799 0.198854 -0.258188 -0.0525417 0.197809
-0.2137 -0.0526878 0.197109 -0.169208 -0.0528059 0.196731 -0.124836 -0.0528483 0.196621 -0.0495841
-0.0528206 0.196727 0.0256663 -0.0525919 0.197168 0.100913 -0.0523468 0.198036 0.176157 -0.0521489
0.199082 0.251444 -0.0519544 0.200037 0.304889 -0.0517808 0.200696 0.358334 -0.051627 0.201315
0.41178 -0.0514822 0.201868 0.465227 -0.0513467 0.202355 0.576068 -0.0510908 0.203242 0.585914
-0.0510749 0.203302 0.595759 -0.0510596 0.203361 0.605605 -0.0510449 0.203419 0.615451 -0.0510307
[...]
POINT_DATA 2545
FIELD attributes 4
age 1 2545 float
0 0.00501176 0.0100235 0.0150353 0.020047 0.0250588 0.0288085 0.0325566 0.0363048 0.040053 0.0438012
0.0475496 0.0512951 0.0550405 0.0587859 0.0625313 0.070028 0.0775266 0.0850251 0.0925237 0.100022
0.107522 0.115022 0.122522 0.130022 0.137522 0.145022 0.152522 0.160023 0.167523 0.175023
0.182523 0.190023 0.197523 0.205023 0.212523 0.220023 0.227523 0.235023 0.242523 0.250023
0.257523 0.265023 0.272523 0.280023 0.287523 0.295023 0.302523 0.310023 0.317523 0.325023
0.332523 0.340023 0.347523 0.355023 0.362523 0.370023 0.377523 0.385023 0.392523 0.400023
0.407523 0.415023 0.422523 0.430023 0.437523 0.445023 0.452523 0.460023 0.467523 0.475023
0.482523 0.490023 0.497523 0.505023 0.512523 0.520023 0.527523 0.535023 0.542524 0.550024
0 0.00503072 0.0100632 0.01509 0.0201089 0.0251199 0.0288638 0.032602 0.036333 0.0400565
0.0437728 0.0474807 0.0511793 0.0548754 0.0585709 0.0622675 0.0696733 0.0771051 0.0845527 0.0920161
0.0994952 0.105192 0.110889 0.116588 0.122288 0.127456 0.129361 0.131267 0.133173 0.135079
0.136986 0.144491 0.151996 0.1595 0.167005 0.17451 0.182014 0.189519 0.197023 0.204526
0.212029 0.219532 0.227035 0.234537 0.242039 0.249542 0.257044 0.264546 0.272048 0.279549
0.287051 0.294553 0.302055 0.309557 0.317058 0.32456 0.332062 0.339564 0.347065 0.354567
0.362069 0.369571 0.377072 0.384574 0.392076 0.399577 0.407079 0.414581 0.422083 0.429585
0.437086 0.444589 0.45209 0.459592 0.467094 0.474596 0.482098 0.4896 0.497102 0.504604
0.512107 0.519609 0.527112 0.534615 0.542118 0.549622 0 0.00503225 0.0100667 0.0150956
0.0201185 0.0251356 0.0288874 0.0326327 0.0363697 0.0401008 0.0438205 0.0475283 0.0512279 0.0549253
0.0586208 0.0623148 0.0697088 0.0771299 0.0845698 0.0920326 0.0995183 0.107021 0.114527 0.122039
0.129552 0.137067 0.144592 0.152109 0.159626 0.167143 0.174659 0.182184 0.1897 0.197215
0.204729 0.212244 0.219766 0.22728 0.234793 0.242307 0.24982 0.257342 0.264855 0.272368
0.279881 0.287394 0.294915 0.302428 0.309941 0.317454 0.324966 0.332488 0.340001 0.347513
0.355026 0.362539 0.370061 0.377573 0.385086 0.392599 0.400111 0.407634 0.415146 0.422659
0.430172 0.437684 0.445207 0.452719 0.460232 0.467745 0.475258 0.48278 0.490293 0.497806
0.505319 0.512832 0.520355 0.527868 0.535382 0.542896 0.55041 0 0.00503433 0.0100749
0.015113 0.0201459 0.0251755 0.0289493 0.0327092 0.0364574 0.0401954 0.043917 0.0476174 0.0513073
0.0549915 0.0586738 0.0623578 0.0697298 0.07714 0.0845853 0.0920535 0.0995439 0.107056 0.114572
0.122097 0.129631 0.137166 0.144711 0.152248 0.159786 0.167325 0.174863 0.182409 0.189946
0.197483 0.205019 0.212555 0.2201 0.227635 0.23517 0.242705 0.25024 0.257783 0.265318
0.272852 0.280387 0.287921 0.295464 0.302999 0.310533 0.318067 0.325601 0.333145 0.340679
0.348213 0.355747 0.363281 0.370825 0.378359 0.385893 0.393427 0.400962 0.408505 0.416039
0.423574 0.431108 0.438642 0.446186 0.45372 0.461254 0.468789 0.476323 0.483867 0.491401
0.498935 0.506469 0.514004 0.521548 0.529083 0.536618 0.544152 0.551687 0 0.00267611
0.00535395 0.00803351 0.0107128 0.0139155 0.0161777 0.01844 0.0207019 0.0229632 0.0252257 0.0266677
0.0281081 0.0295461 0.0309814 0.0328801 0.0350945 0.037302 0.039502 0.0416942 0.0438726 0.0475568
0.0512353 0.0549084 0.0585838 0.0622705 0.0648913 0.0675175 0.0701493 0.0727867 0.0782682 0.0787574
0.0792468 0.0797364 0.0802262 0.0807163 0.0807688 0.0808213 0.0808739 0.0809264 0.0809788 0.0846601
0.0883477 0.0920417 0.0957421 0.0994475 0.106969 0.114494 0.122028 0.129572 0.137127 0.144691
0.152248 0.159805 0.167364 0.174922 0.18249 0.190048 0.197605 0.205162 0.212719 0.220284
0.22784 0.235396 0.242951 0.250507 0.258071 0.265626 0.273181 0.280736 0.288291 0.295856
0.30341 0.310965 0.31852 0.326075 0.333639 0.341194 0.348748 0.356303 0.363858 0.371422
0.378977 0.386532 0.394086 0.401641 0.409206 0.41676 0.424315 0.431869 0.439424 0.446989
0.454544 0.462098 0.469653 0.477208 0.484773 0.492327 0.499882 0.507436 0.514991 0.522556
0.530111 0.537666 0.545221 0.552776 0 0.00126559 0.00253157 0.0037983 0.00506591 0.00633444
0.0101264 0.0139266 0.0177382 0.0215579 0.0253625 0.0269329 0.0284936 0.0300487 0.0315979 0.0328541
0.0332254 0.0335964 0.033967 0.0343373 0.0347075 0.0365493 0.0383841 0.0402101 0.0420297 0.0438372
0.045647 0.047454 0.0492688 0.0510863 0.0529036 0.0547224 0.0565421 0.0583638 0.0601875 0.0620192
0.0656817 0.0693617 0.0730639 0.0767862 0.080527 0.0842917 0.0880505 0.0918101 0.0955729 0.0993426
0.106891 0.114446 0.122008 0.129578 0.137155 0.144743 0.152328 0.159913 0.167499 0.175084
0.182671 0.190256 0.19784 0.205424 0.213007 0.22059 0.228172 0.235754 0.243335 0.250916
0.258498 0.266079 0.273659 0.28124 0.288821 0.296401 0.303982 0.311562 0.319142 0.326722
0.334303 0.341883 0.349463 0.357043 0.364623 0.372203 0.379783 0.387363 0.394943 0.402523
0.410103 0.417683 0.425263 0.432843 0.440423 0.448003 0.455582 0.463162 0.470742 0.478322
0.485902 0.493482 0.501062 0.508642 0.516222 0.523802 0.531382 0.538962 0.546541 0.554121
0 0.00126691 0.00253437 0.00380241 0.00507101 0.00634019 0.00823721 0.010137 0.0120395 0.0139449
0.0158524 0.0177729 0.0196982 0.0216253 0.0235568 0.025501 0.0264756 0.0274473 0.028415 0.0293786
0.0303428 0.0308116 0.0312788 0.0317442 0.0322081 0.0326854 0.0331611 0.033635 0.0341071 0.0345773
0.0350453 0.0359671 0.0368858 0.0378002 0.03871 0.0396116 0.0405121 0.041411 0.0423084 0.0432042
0.0440963 0.0458818 0.0476737 0.0494687 0.0512668 0.0530764 0.0544216 0.055763 0.0571116 0.0584673
0.0601067 0.060531 0.0609557 0.0613808 0.0618062 0.062232 0.0640852 0.0659423 0.067804 0.0696703
0.0715403 0.0734209 0.0752978 0.0771794 0.0790653 0.0809549 0.0819305 0.0829062 0.0838819 0.0848575
0.0858064 0.0886399 0.0914772 0.0943184 0.0971624 0.100009 0.107647 0.115291 0.122939 0.130584
0.138224 0.145876 0.153517 0.161156 0.168795 0.176434 0.184081 0.191717 0.199353 0.206988
0.214622 0.222264 0.229896 0.237528 0.245159 0.25279 0.26043 0.268059 0.275688 0.283318
0.290946 0.298585 0.306213 0.313841 0.321469 0.329097 0.336735 0.344362 0.351988 0.359615
0.367242 0.374879 0.382505 0.390131 0.397757 0.405383 0.413021 0.420646 0.428271 0.435897
0.443522 0.451159 0.458784 0.466409 0.474034 0.481659 0.489296 0.49692 0.504544 0.512169
0.519793 0.52743 0.535053 0.542677 0.550301 0.557924 0 0.00126406 0.00252885 0.00379484
0.00506224 0.00633104 0.00824435 0.01016 0.0120795 0.0140023 0.0159306 0.0178517 0.0197853 0.0217314
0.0236905 0.0256739 0.0266773 0.0276827 0.0286896 0.0296971 0.0307192 0.0309557 0.0311922 0.0314285
0.0316631 0.0318459 0.0326199 0.0333829 0.0341356 0.0348746 0.0356045 0.0360627 0.0365197 0.0369756
0.0374304 0.0378802 0.0383297 0.0387778 0.0392242 0.0396694 0.0401099 0.0405523 0.0409948 0.0414371
0.0418788 0.0423206 0.0427635 0.0432024 0.0436395 0.0440765 0.0445138 0.0453923 0.0462742 0.0471603
0.0480493 0.0489496 0.0498803 0.0507958 0.0517089 0.0526304 0.0535658 0.0554682 0.0574106 0.059368
0.0613491 0.0633409 0.0644249 0.0655041 0.0665722 0.0676292 0.0697533 0.0704421 0.0711321 0.0718234
0.072516 0.0732096 0.0751751 0.0771526 0.0791344 0.0811203 0.0831088 0.0870736 0.091025 0.0949744
0.0989199 0.102862 0.110714 0.118517 0.12622 0.133918 0.141613 0.149324 0.157024 0.164721
0.172415 0.180108 0.187811 0.195502 0.203192 0.210881 0.21857 0.226267 0.233954 0.241639
0.249324 0.257009 0.264704 0.272387 0.28007 0.287753 0.295435 0.303129 0.31081 0.318492
0.326173 0.333854 0.341546 0.349226 0.356906 0.364586 0.372266 0.379958 0.387637 0.395316
0.402995 0.410673 0.418365 0.426043 0.433721 0.441399 0.449077 0.456768 0.464445 0.472123
0.4798 0.487477 0.495168 0.502845 0.510521 0.518197 0.525874 0.533563 0.541239 0.548914
0.556589 0.564265 0 0.00126565 0.002532 0.00379905 0.0050668 0.00633591 0.00825548 0.0101774
0.0121028 0.014035 0.015981 0.0169542 0.0179304 0.0189097 0.0198921 0.0208775 0.021868 0.0228672
0.0238757 0.0248936 0.0259223 0.0264427 0.0269657 0.0274927 0.0280236 0.0285616 0.0288673 0.0291747
0.0294848 0.029798 0.0298941 0.0301884 0.0304841 0.030781 0.0310779 0.0313831 0.0315123 0.0316415
0.0317707 0.0319003 0.0319977 0.0320851 0.0321725 0.0322597 0.032347 0.0324219 0.0325097 0.0325976
0.0326854 0.0327731 0.0328613 0.0330203 0.0331791 0.0333377 0.0334948 0.0336104 0.0337402 0.0338691
0.0339971 0.0341237 0.0342522 0.0343887 0.0345228 0.0346548 0.034785 0.0349091 0.0349686 0.0350276
0.0350863 0.0351449 0.0352025 0.0352731 0.0353434 0.0354133 0.0354828 0.0355547 0.0356321 0.0357093
0.035786 0.0358622 0.0359842 0.0361503 0.0363159 0.0364841 0.0366511 0.0367803 0.0369069 0.0370337
0.0371605 0.0372874 0.0376487 0.0377086 0.0377684 0.0378281 0.0378878 0.037947 0.0379868 0.0380266
0.0380664 0.0381062 0.0381559 0.0383452 0.038535 0.0387254 0.0389164 0.0391046 0.0393389 0.0395696
0.0398004 0.0400331 0.0402672 0.0405035 0.0407373 0.0409702 0.041204 0.0414442 0.0416924 0.0419334
0.0421677 0.0424013 0.0426374 0.0428751 0.0431085 0.0433376 0.043568 0.0438073 0.0443041 0.0447996
0.0452987 0.0458031 0.0463142 0.0468497 0.0473593 0.0478719 0.0483879 0.0489103 0.0494418 0.0499663
0.0504941 0.051028 0.0515704 0.0526725 0.0537548 0.0548508 0.055961 0.0570831 0.0578351 0.0586005
0.059367 0.0601348 0.0610217 0.0613817 0.0617425 0.0621041 0.0624665 0.0628298 0.0640141 0.0651796
0.0663405 0.0674924 0.0686394 0.0698116 0.0709589 0.072084 0.0731988 0.0743256 0.0754656 0.0765885
0.0777017 0.0788156 0.0799405 0.0822357 0.0845088 0.0867473 0.0890007 0.0912316 0.0956596 0.100039
0.10434 0.108563 0.112725 0.113198 0.113672 0.114146 0.11462 0.115099 0.12288 0.130604
0.138215 0.145716 0.15311 0.160909 0.168699 0.176487 0.184271 0.192053 0.199842 0.20762
0.215398 0.223174 0.23095 0.238734 0.246507 0.254279 0.262051 0.269822 0.277603 0.285372
0.293141 0.30091 0.308679 0.316458 0.324225 0.331992 0.339759 0.347525 0.355303 0.363069
0.370834 0.3786 0.386365 0.394142 0.401906 0.40967 0.417434 0.425198 0.432974 0.440737
0.4485 0.456263 0.464025 0.471801 0.479563 0.487325 0.495086 0.502848 0.510623 0.518384
0.526145 0.533905 0.541665 0.549438 0.557197 0.564956 0.572715 0.580473 0 0.00125496
0.0025109 0.00376827 0.00502724 0.00628789 0.00822146 0.0101578 0.0120972 0.0140442 0.0160068 0.0169823
0.0179617 0.0189452 0.0199327 0.0209244 0.0219218 0.0229306 0.0239514 0.0249845 0.0260307 0.026562
0.0270978 0.0276407 0.028191 0.0287504 0.0293218 0.029902 0.0304972 0.0311075 0.0317453 0.0317993
0.0318534 0.0319076 0.0319618 0.032007 0.032283 0.0325595 0.0328362 0.0331133 0.0334004 0.0336141
0.0338278 0.0340416 0.0342491 0.0343715 0.0343911 0.0344105 0.0344299 0.0344493 0.0344682 0.034579
0.0346885 0.0347965 0.0349031 0.0350124 0.0352112 0.035405 0.0355935 0.0357765 0.0359215 0.0360044
0.036087 0.0361694 0.036251 0.0363298 0.0364804 0.0366266 0.0367686 0.0369095 0.0371009 0.0371811
0.0372612 0.0373411 0.0374209 0.037496 0.0377511 0.0380066 0.0382664 0.0385304 0.0390046 0.0392001
0.0393942 0.039587 0.0397786 0.0399665 0.0404526 0.0409343 0.0414136 0.0418906 0.0423757 0.0428756
0.0433602 0.0438306 0.0442987 0.0447797 0.0451184 0.045449 0.0457723 0.0460967 0.0466025 0.0467356
0.0468687 0.0470027 0.0471374 0.0472724 0.0482856 0.0493298 0.0504108 0.0514936 0.0525612 0.053713
0.054796 0.0558792 0.0569722 0.0581013 0.0581918 0.0582825 0.0583733 0.0584642 0.0585548 0.0596339
0.0607235 0.0618168 0.0629099 0.0640038 0.0652436 0.0664181 0.0675947 0.0687844 0.0699751 0.0710384
0.0720807 0.0731273 0.074176 0.0756247 0.0757072 0.0757897 0.0758723 0.0759548 0.0760374 0.0772612
0.0784887 0.0797221 0.0809574 0.0821917 0.0847218 0.0872728 0.0898773 0.0925268 0.0951412 0.100074
0.104991 0.109737 0.114267 0.118614 0.127024 0.135323 0.143493 0.151536 0.159456 0.167258
0.175115 0.182967 0.190813 0.198655 0.206454 0.214287 0.222119 0.22995 0.23778 0.245575
0.253401 0.261226 0.269051 0.276875 0.284668 0.292489 0.30031 0.30813 0.315951 0.323742
0.33156 0.339378 0.347196 0.355013 0.362804 0.370619 0.378434 0.386249 0.394064 0.401854
0.409667 0.41748 0.425293 0.433106 0.440895 0.448706 0.456517 0.464328 0.472138 0.479926
0.487735 0.495544 0.503353 0.511161 0.518949 0.526756 0.534562 0.542369 0.550175 0.55796
0.565764 0.573567 0.581371 0.589174 0 0.00126004 0.00252077 0.00378221 0.00504518 0.00630994
0.00824076 0.0101747 0.0121118 0.0140568 0.0160168 0.0169922 0.0179718 0.0189556 0.0199436 0.0209361
0.0219336 0.0229424 0.0239633 0.0249965 0.0260429 0.0265749 0.0271108 0.027653 0.0282023 0.028761
0.0293304 0.0299087 0.0304996 0.031104 0.0317365 0.0318435 0.0319505 0.0320579 0.0321655 0.0322416
0.0324673 0.0326933 0.0329195 0.0331458 0.0333788 0.0337051 0.0340295 0.034349 0.0346592 0.0347801
0.034822 0.0348638 0.0349054 0.0349468 0.0349886 0.0350491 0.035109 0.0351683 0.0352269 0.0352899
0.0354746 0.0356538 0.0358281 0.0359978 0.0361614 0.0362009 0.0362404 0.0362798 0.0363191 0.0363578
0.0365412 0.0367178 0.0368881 0.0370563 0.0372841 0.0373389 0.0373936 0.0374482 0.0375028 0.0375556
0.0380359 0.0385199 0.0390109 0.039514 0.0399595 0.0404555 0.0409461 0.0414314 0.0419254 0.0424625
0.0430541 0.0436407 0.044232 0.0448349 0.0454589 0.0455705 0.0456825 0.0457942 0.0459051 0.0460057
0.0460951 0.0461846 0.0462739 0.0463628 0.0464702 0.0469027 0.0473315 0.0477573 0.0481808 0.048598
0.0498626 0.0510571 0.0522213 0.0533967 0.0546291 0.0559979 0.0573406 0.0586402 0.0599378 0.0612829
0.0632739 0.0653308 0.0674118 0.0695075 0.0738812 0.0742752 0.0746663 0.0750546 0.0754399 0.0758218
0.0763984 0.0769703 0.0775394 0.0781064 0.0786779 0.0795088 0.0803389 0.0811681 0.0819965 0.0828228
0.0842142 0.0855828 0.08696 0.0883452 0.0897291 0.0925277 0.0953706 0.0982619 0.101118 0.10383
0.108948 0.113944 0.118766 0.123396 0.127848 0.136294 0.144691 0.152954 0.161013 0.168891
0.176645 0.184503 0.192385 0.200267 0.208122 0.215869 0.223717 0.23159 0.239461 0.247307
0.25505 0.26289 0.270754 0.278616 0.286455 0.294196 0.302029 0.309886 0.317742 0.325575
0.333314 0.341143 0.348992 0.356842 0.36467 0.372408 0.380232 0.388076 0.395919 0.403743
0.41148 0.419299 0.427137 0.434974 0.442793 0.450529 0.458344 0.466176 0.474007 0.481822
0.489557 0.497367 0.505193 0.513018 0.520829 0.528563 0.536369 0.544189 0.552009 0.559815
0.567548 0.575348 0.583159 0.59097 0.59877 0 0.00128077 0.0025622 0.00384499 0.00512938
0.00641539 0.00832383 0.010235 0.0121491 0.0140702 0.0160041 0.0169783 0.0179557 0.0189364 0.0199207
0.0209086 0.0219054 0.022912 0.0239289 0.0249561 0.0259964 0.0263208 0.0266461 0.0269733 0.0273026
0.02745 0.0276931 0.027937 0.0281815 0.0284267 0.0286728 0.0292222 0.0297769 0.0303409 0.0309137
0.0315062 0.0317172 0.0319281 0.0321393 0.0323508 0.032482 0.032582 0.032682 0.0327819 0.0328818
0.0329824 0.0329866 0.0329907 0.0329949 0.032999 0.0330031 0.033292 0.0335796 0.0338662 0.0341507
0.0344335 0.0344367 0.0344398 0.034443 0.0344462 0.0344494 0.0346251 0.0347971 0.0349657 0.0351324
0.0352353 0.0352938 0.0353519 0.0354097 0.0354671 0.0355294 0.0355936 0.0356576 0.0357214 0.0357851
0.0358494 0.0359787 0.0361051 0.036229 0.0363509 0.036556 0.0366291 0.0367013 0.0367726 0.0368439
0.0369482 0.0369599 0.0369715 0.0369832 0.0369948 0.0370064 0.0371648 0.037322 0.0374794 0.0376362
0.0379116 0.0379455 0.0379793 0.0380131 0.0380468 0.0380803 0.0382973 0.0385128 0.0387285 0.0389454
0.03916 0.039379 0.0395966 0.0398136 0.0400307 0.0402499 0.0404723 0.0406919 0.0409123 0.0411334
0.0413552 0.0413614 0.0413677 0.0413739 0.0413802 0.0413864 0.0416025 0.0418184 0.0420341 0.0422496
0.0424652 0.0426876 0.0429083 0.0431281 0.0433476 0.043569 0.0440138 0.0444566 0.0449058 0.0453575
0.0458109 0.0467433 0.0476637 0.0485911 0.0495302 0.050501 0.0512143 0.0519262 0.0526654 0.0534107
0.0542138 0.0545146 0.0548167 0.0551201 0.0554247 0.0557312 0.0568444 0.0579486 0.0590597 0.0601629
0.0612837 0.0624759 0.0636074 0.0647217 0.0658526 0.0669979 0.0693911 0.0717897 0.0741264 0.0764686
0.0788081 0.0809771 0.0832978 0.0854742 0.0876107 0.0897472 0.0905296 0.0913125 0.0920945 0.0928756
0.0937201 0.097137 0.100552 0.103964 0.107337 0.110729 0.118757 0.126735 0.134675 0.142579
0.15046 0.158207 0.166029 0.173848 0.181666 0.189481 0.197219 0.20503 0.212839 0.220648
0.228456 0.23619 0.243993 0.251796 0.259598 0.2674 0.275131 0.282929 0.290727 0.298525
0.306322 0.314052 0.321846 0.329639 0.337433 0.345226 0.352955 0.360745 0.368535 0.376324
0.384114 0.391841 0.399627 0.407413 0.415199 0.422985 0.430711 0.438494 0.446276 0.454058
0.46184 0.469565 0.477344 0.485123 0.492901 0.500679 0.508404 0.516179 0.523954 0.531728
0.539503 0.547226 0.554996 0.562765 0.570534 0.578303 0 0.00127831 0.00255737 0.00383764
0.00511931 0.0064024 0.00830588 0.0102115 0.01212 0.0140336 0.0159557 0.0169215 0.0178892 0.0188589
0.0198308 0.020805 0.0217803 0.0227611 0.0237475 0.0247386 0.025734 0.0267283 0.0277306 0.0287423
0.0297491 0.0307652 0.0307657 0.0307663 0.0307668 0.0307673 0.0307679 0.0317782 0.0327649 0.0337253
0.0346621 0.0355964 0.0360498 0.0365016 0.0369519 0.0374014 0.0378428 0.0379436 0.0380442 0.0381448
0.0382455 0.0384006 0.0387316 0.0390628 0.0393936 0.039724 0.0400515 0.0409283 0.0418038 0.0426786
0.0435552 0.0444325 0.0453167 0.0462012 0.0470907 0.0479899 0.0482919 0.0484135 0.0485351 0.0486568
0.0487785 0.0489005 0.049816 0.0507299 0.0516457 0.0525633 0.0534846 0.0553493 0.0572533 0.0591781
0.0611255 0.063074 0.0650382 0.0670068 0.068946 0.070885 0.0728298 0.074786 0.0767386 0.0786924
0.0806463 0.0825985 0.0865063 0.0904159 0.0943148 0.0982078 0.102111 0.109949 0.117788 0.125597
0.13337 0.141107 0.148832 0.156553 0.164274 0.171995 0.179716 0.18744 0.195161 0.20288
0.210599 0.218317 0.226035 0.233751 0.241467 0.249181 0.256895 0.26461 0.272323 0.280035
0.287746 0.295457 0.30317 0.31088 0.318589 0.326298 0.334007 0.341718 0.349426 0.357134
0.364841 0.372548 0.380257 0.387963 0.395669 0.403375 0.411081 0.418788 0.426493 0.434198
0.441902 0.449606 0.457312 0.465016 0.472719 0.480422 0.488125 0.49583 0.503532 0.511234
0.518936 0.526637 0.534341 0.542041 0.549741 0.557441 0.565141 0 0.0012749 0.00255047
0.00382653 0.00510396 0.00638272 0.00828049 0.0101807 0.0120835 0.0139893 0.0158991 0.0178105 0.0197265
0.0216483 0.0235759 0.0255131 0.0264878 0.0274584 0.0284236 0.0293833 0.029496 0.0306204 0.0317367
0.0328405 0.033932 0.0350139 0.0359258 0.0368348 0.0377398 0.0386427 0.0395351 0.0404291 0.0413218
0.0422133 0.0431037 0.0439902 0.0457668 0.0475583 0.0493633 0.0511764 0.0530054 0.0548361 0.0566699
0.0585149 0.0603682 0.0622275 0.0636306 0.0650357 0.0664424 0.0678505 0.0702463 0.0705165 0.0707868
0.0710571 0.0713275 0.071598 0.0734806 0.0753637 0.0772477 0.0791332 0.0810201 0.0848067 0.0885967
0.0923923 0.0961933 0.0999991 0.107628 0.115256 0.122857 0.130477 0.138118 0.145783 0.153442
0.161101 0.16876 0.176418 0.184084 0.191742 0.1994 0.207056 0.214712 0.222374 0.230028
0.237682 0.245334 0.252987 0.260646 0.268297 0.275948 0.283599 0.291249 0.298905 0.306555
0.314204 0.321853 0.329502 0.337157 0.344805 0.352453 0.3601 0.367748 0.375401 0.383048
0.390694 0.398341 0.405987 0.413639 0.421285 0.428931 0.436576 0.444221 0.451872 0.459517
0.467162 0.474807 0.482451 0.490101 0.497745 0.505389 0.513033 0.520676 0.528324 0.535967
0.54361 0.551252 0.558895 0 0.00127219 0.00254476 0.00381791 0.0050917 0.00636615 0.0101485
0.0139434 0.0177378 0.0215283 0.0253243 0.0256879 0.0260507 0.026413 0.0267749 0.0270905 0.0286106
0.0301246 0.0316326 0.0331347 0.0346419 0.0364866 0.038322 0.0401414 0.041956 0.0437653 0.0455799
0.0473911 0.0491998 0.0510158 0.052841 0.0546724 0.0565035 0.0583362 0.0601718 0.0620098 0.0656997
0.0694059 0.0731239 0.0768636 0.0806082 0.0843735 0.0881335 0.0918941 0.0956567 0.0994223 0.106943
0.114466 0.121993 0.12954 0.137106 0.144698 0.152283 0.15987 0.167458 0.175046 0.182642
0.190231 0.197819 0.205407 0.212993 0.220586 0.228172 0.235757 0.243342 0.250926 0.258516
0.266099 0.273682 0.281265 0.288847 0.296436 0.304018 0.311599 0.319181 0.326762 0.334349
0.341929 0.34951 0.35709 0.36467 0.372256 0.379836 0.387415 0.394995 0.402574 0.410159
0.417738 0.425316 0.432895 0.440474 0.448057 0.455636 0.463214 0.470792 0.47837 0.485953