# vtk DataFile Version 2.0
sampleSurface
ASCII
DATASET POLYDATA
POINTS 2021 float
-0.500032 0 0.11501 -0.499951 3.38813e-21 0.0392727 -0.789037 8.47033e-21 0.120673 -0.500013 -1.35525e-20
0.193965 1.00003 0 0.0485099 1.00003 0 0.0478584 0.475202 0 0.0353615
0.250044 1.41878e-20 0.0305359 0.2506 -5.42101e-20 0.117067 0.251301 0 0.203885 0.364989
0 0.203772 1.75002 0 0.113255 1.75002 0 0.0564279 2.50001 6.89146e-18
0.059229 2.21354 0 0.250758 2.50001 0 0.252875 3.25001 -3.47927e-17 0.0598775
3.25001 -1.69407e-21 0.253888 4.00001 5.60566e-18 0.0599857 4 0 0.253986 4.75
-1.79088e-17 0.0599988 4.75 8.47033e-22 0.253998 5.5 -2.79246e-17 0.0599999 5.5 -4.23516e-22
0.253999 6.25 1.01187e-17 0.06 6.25 0 0.254 7 2.93732e-17 0.06
7 0 0.254 7.75 -2.65294e-17 0.06 7.75 0 0.254 8.5
1.8923e-17 0.06 8.5 0 0.254 9.25 -2.88552e-17 0.06 9.25 -5.29396e-23
0.254 10 -2.64698e-23 0.254 10 0 0.06 -4.24997 0 0.0599042
-5 0 0.0599861 -5 0 0.253986 -4.24997 0 0.253912 -3.49995
0 0.0593815 -3.49994 0 0.253441 -2.74993 0 0.0570188 -2.74991 0
0.251316 -1.99991 0 0.0492276 -1.99987 0 0.242776 -1.24992 -1.69407e-21 0.03
-1.24985 1.23328e-17 0.222327 -1.24989 3.38813e-21 0.125756 -0.874924 2.08116e-17 0.03 -0.874929
0 0.122356 -0.124951 -8.47033e-22 0.03 -0.499941 0 0.03 -0.124922 -8.47033e-22
0.0385291 1.00021 0 0.231242 0.625368 0 0.203537 0.25004 -2.11758e-22 0.03
1.75003 0 0.247334 1.92873 1.69407e-21 0.441438 2.50001 0 0.447397 3.25
-1.69407e-21 0.447898 4 0 0.447986 4.75 0 0.447997 5.5 -4.23516e-22
0.447999 6.25 4.23516e-22 0.447999 7 0 0.448 7.75 -1.05879e-22 0.448
8.5 0 0.448 9.25 0 0.448 10 -2.64698e-23 0.448 -5
-8.47033e-22 0.447985 -4.24997 0 0.447919 -3.49993 0 0.4475 -2.74988 0
0.445609 -1.9998 6.77626e-21 0.437758 -1.24969 1.61411e-17 0.417681 -1.24976 -6.77626e-21 0.31973
-0.875161 7.70461e-18 0.216228 -0.875403 0 0.312476 -0.499924 -8.74138e-19 0.250039 -0.312433
0 0.250037 -0.312436 0 0.200025 -0.499924 0 0.200026 0.250062 3.38813e-21
0.24921 0.250039 -1.69407e-21 0.250046 0.250032 0 0.300069 0.437526 3.05948e-18 0.300066
0.625026 0 0.30005 1.00072 -8.23994e-18 0.326497 1.00196 0 0.423 1.75013
0 0.439575 1.75013 1.77877e-20 0.448245 1.00135 0 0.537141 1.00002 0
0.61834 1.74999 2.71051e-20 0.633055 2.49999 -3.38813e-21 0.641448 3.25 0 0.641907
4 -1.69407e-21 0.641985 4.75 -8.47033e-22 0.641996 5.5 -4.23516e-22 0.641998 6.25
0 0.641999 7 0 0.641999 7.75 0 0.642 8.5 5.29396e-23
0.642 9.25 -5.29396e-23 0.642 10 0 0.642 -5 0 0.641985
-4.24997 -1.69407e-21 0.641926 -3.49993 0 0.641557 -2.74988 0 0.639897 -1.99989
6.77626e-21 0.63382 -1.25099 2.55465e-18 0.614606 -1.25 -2.71051e-20 0.515981 -0.878244 0
0.50789 -0.875961 2.71051e-20 0.459694 -0.875609 0 0.410432 -0.498432 0 0.400603
-0.498071 -1.70762e-18 0.413126 -0.450805 0 0.413349 -0.45095 0 0.400955 0.250009
1.89735e-19 0.412703 0.25 2.71051e-20 0.425212 0.296872 1.00289e-18 0.425187 0.343754 -2.71051e-20
0.425153 0.343763 0 0.400146 0.250006 0 0.400175 1.00162 1.41488e-17 0.520353
-2 4.23516e-22 0.820145 -2.09502 -2.11758e-22 0.830091 -2 0 0.829497 -1.25123
0 0.813251 -1.25126 0 0.713737 -1.25101 6.77626e-21 0.62198 1.00059 0
0.714169 1.00094 0 0.809205 1.75018 0 0.82775 2.5 0 0.835521
3.25 0 0.835917 4 -1.69407e-21 0.835986 4.75 -8.47033e-22 0.835996 5.5
0 0.835998 6.25 0 0.835999 7 0 0.835999 7.75 0
0.836 8.5 0 0.836 9.25 0 0.836 10 0 0.836
-5 -8.47033e-22 0.835986 -4.24997 0 0.835935 -3.49995 0 0.835616 -2.74991
0 0.83419 -0.970118 0 0.703382 -0.87455 0 0.699864 -0.874264 -2.71051e-20
0.649852 -0.874033 -2.71051e-20 0.599873 -0.49698 0 0.599585 -0.497345 -9.21572e-19 0.612046
-0.450014 0 0.611892 -0.44938 2.71051e-20 0.599454 -2.00002 0 0.84097 -1.84639
-3.38813e-21 1.02215 -1.25185 0 1.01276 -0.896512 -3.38813e-21 0.900668 -0.908183 6.77626e-21
0.801076 -0.904022 -1.86347e-20 1.00093 0.624925 0 0.799916 0.249931 0 0.799891
0.249978 0 0.899916 0.249997 0 0.999939 0.999987 0 0.999957 1.75061
-2.1684e-19 1.02409 2.50003 0 1.0296 3.25 -1.69407e-21 1.02993 4 0
1.02999 4.75 0 1.03 5.5 0 1.03 6.25 2.11758e-22 1.03
7 0 1.03 7.75 0 1.03 8.5 5.29396e-23 1.03 9.25
0 1.03 10 0 1.03 -5 0 1.02999 -4.24998 0
1.02994 -3.49996 -8.47033e-22 1.02968 -2.74996 0 1.02849 -2.00026 0 1.02458
-0.87482 0 0.799893 -0.87491 0 0.899919 -0.49993 0 0.799862 -0.499958
7.6233e-19 0.849889 -0.312476 0 0.849885 -0.312472 0 0.799853 -1.25001 8.04681e-21
1.19601 -0.499979 5.29396e-23 1.10737 -0.731886 2.11758e-22 1.19997 -0.499981 0 1.19997
-0.124987 0 0.999933 -0.477759 -5.29396e-23 0.999933 -0.487556 -1.45584e-22 1.09995 0.250008
0 1.19997 1 0 1.19997 1.7507 0 1.22203 2.50003 -1.35525e-20
1.22368 3.25 0 1.22394 4 0 1.22399 4.75 4.23516e-22 1.224
5.5 0 1.224 6.25 2.11758e-22 1.224 7 0 1.224 7.75
1.05879e-22 1.224 8.5 0 1.224 9.25 0 1.224 10 2.64698e-23
1.224 -5 4.23516e-22 1.22399 -4.24999 -4.23516e-22 1.22395 -3.49998 0 1.22374
-2.75001 0 1.22279 -2.00077 0 1.21965 -1.24997 4.23516e-22 1.19997 -0.499969
-5.29396e-23 0.999933 -0.874942 0 0.999936 -0.499979 -1.32349e-23 1.09995 -2.75001 0
1.36967 -3.18711 4.23516e-22 1.41751 -2.75001 4.23516e-22 1.4171 -2.00072 3.38813e-21 1.29692
-2.00065 0 1.41474 -1.25823 6.35275e-21 1.40014 -0.980416 0 1.39998 -0.499986
0 1.39998 0.250009 0 1.39998 1 0 1.39998 1.75054 0
1.41682 2.50002 -1.35525e-20 1.41776 3.25 0 1.41796 4 4.23516e-22 1.41799
4.75 0 1.418 5.5 0 1.418 6.25 0 1.418 7
0 1.418 7.75 0 1.418 8.5 0 1.418 9.25 0
1.418 10 0 1.418 -5 0 1.41799 -4.24999 0 1.41797
-3.49999 -4.23516e-22 1.41781 -1.24998 0 1.39998 -2.80392 1.32349e-23 1.61143 -2.75
-1.32349e-23 1.6114 -2.0003 0 1.60983 -1.25396 2.64698e-23 1.60004 -1.12789 2.64698e-23
1.59999 -0.49999 1.05879e-22 1.59999 0.250008 0 1.59999 1.00001 4.23516e-22 1.59999
1.75038 0 1.61122 2.50002 0 1.61184 3.25 -4.23516e-22 1.61197 4
-4.23516e-22 1.61199 4.75 0 1.612 5.5 0 1.612 6.25 0
1.612 7 0 1.612 7.75 5.29396e-23 1.612 8.5 2.64698e-23 1.612
9.25 -1.32349e-23 1.612 10 -1.32349e-23 1.612 -5 0 1.61199 -4.24999
0 1.61198 -3.49999 0 1.61187 -1.24999 0 1.59999 -2.75 -1.32349e-23
1.63714 -2.64195 -2.11758e-22 1.80559 -2.00012 -8.47033e-22 1.80492 -1.25741 0 1.80004
-1.19082 -7.94093e-23 1.8 -0.499992 1.05879e-22 1.79999 0.250006 2.11758e-22 1.79999 1
0 1.8 1.75023 0 1.80561 2.50001 3.38813e-21 1.80592 3.25 0
1.80599 4 0 1.806 4.75 2.11758e-22 1.806 5.5 0 1.806
6.25 0 1.806 7 0 1.806 7.75 0 1.806 8.5
2.64698e-23 1.806 9.25 0 1.806 10 0 1.806 -5 0
1.806 -4.25 -2.11758e-22 1.80599 -3.49999 0 1.80594 -2.75 -1.05879e-22 1.8057
-1.24999 0 1.8 -2 -4.76456e-22 1.98532 -1.20969 -1.65436e-23 2 -0.499993
0 2 0.250006 0 2 1 0 2 1.75 0
2 2.5 0 2 3.25 0 2 4 0 2
4.75 -1.05879e-22 2 5.5 0 2 6.25 0 2 7
5.29396e-23 2 7.75 0 2 8.5 0 2 9.25 0
2 10 -1.32349e-23 2 -5 2.21817e-18 2 -4.25 1.05879e-22 2
-3.49999 0 2 -2.74999 0 2 -1.99999 -5.29396e-23 2 -1.24999
3.30872e-24 2 0.0956945 -5.42101e-20 0.203879 0.0632748 0 0.203876 0.0625511 0
0.250042 -0.403589 6.77626e-21 0.40138 -0.405779 7.7927e-19 0.38799 -0.406379 -6.77626e-21 0.375196
-0.499567 -1.35525e-20 0.375265 0.250006 -6.50521e-19 0.375144 0.156247 0 0.375155 0.156237
9.41901e-19 0.400212 0.203129 0 0.400201 0.249796 0 0.59991 0.249852 -1.0842e-19
0.587433 0.202953 0 0.587417 0.202888 6.50521e-19 0.599901 0.625121 -6.77626e-21 0.499953
0.717439 6.77626e-21 0.504955 0.625095 6.77626e-21 0.475379 0.343596 1.0842e-19 0.599918 0.343639
0 0.574939 0.296781 0 0.574964 0.249926 0 0.574977 0.62499 -4.2826e-18
0.549927 0.624917 4.55365e-18 0.599925 0.203133 0 0.412725 -0.449046 0 0.587135
-0.496581 5.42101e-20 0.587161 0.625036 -9.32414e-18 0.40006 0.625067 1.13164e-18 0.450032 0.249704
0 0.624881 0.155871 0 0.599866 0.155839 1.95156e-18 0.624853 0.249886 1.35525e-20
0.749873 0.062411 0 0.749846 0.0624478 -4.26227e-18 0.799869 -0.312472 0 0.749804
-0.499901 -3.38813e-21 0.749824 -0.691227 0 0.30453 -0.499912 3.02221e-18 0.300065 -0.875784
-3.11708e-18 0.361353 -0.592465 -2.71051e-20 0.40036 -0.499854 0 0.350135 -0.687111 1.35525e-20
0.350117 -0.68656 -2.71051e-20 0.40021 0.437526 -1.35525e-20 0.400108 0.437522 6.77626e-21 0.350086
0.250015 -2.51399e-18 0.35011 0.625027 3.38813e-21 0.350064 -0.592287 0 0.425286 -0.498048
0 0.425444 -0.873902 5.42101e-18 0.54992 -0.496663 0 0.574746 -0.591532 0
0.574798 -0.591729 0 0.599734 -0.149108 0 0.406489 -0.149477 -5.29396e-23 0.403592
-0.149678 0 0.406489 -0.451876 -2.1684e-18 0.499977 -0.451579 0 0.487563 -0.498366
0 0.487552 -0.498515 -1.0842e-19 0.499993 0.437553 0 0.450075 0.437532 -6.07153e-18
0.425113 0.254621 -1.25361e-19 0.496697 0.26485 -5.42101e-20 0.498023 0.264831 0 0.496529
0.254636 -2.30393e-19 0.49668 0.570241 0 0.499932 0.437665 -2.71051e-20 0.474991 0.437859
-2.71051e-20 0.49988 0.437372 -1.0842e-19 0.599915 0.249722 3.25261e-19 0.649874 0.43732 -5.42101e-20
0.649899 0.624872 0 0.649914 0.624883 -3.95734e-18 0.699913 0.43734 6.83047e-18 0.699894
0.249817 0 0.699869 -0.592227 0 0.624743 -0.498071 -2.71051e-20 0.624658 -0.499769
6.77626e-21 0.69979 -0.687025 0 0.699824 -0.150854 -1.03677e-18 0.599678 -0.151059 -6.77626e-21
0.605522 -0.127339 6.77626e-21 0.605681 -0.127867 0 0.599582 -0.406139 -4.40457e-20 0.699754
-0.406113 0 0.674749 -0.499634 0 0.674774 -0.18433 -4.23516e-22 0.674527 -0.163626
-4.23516e-22 0.678958 -0.165125 0 0.674537 -0.171868 4.23516e-22 0.674524 -0.14924 3.34737e-19
0.400169 -0.125737 0 0.400165 -0.12551 0 0.393854 -0.149076 -2.11758e-22 0.393877
-0.499925 -2.61564e-18 0.325088 -0.406241 0 0.325087 -0.4062 0 0.300069 -0.124901
0 0.300062 -0.218633 -3.27294e-18 0.299673 -0.218596 1.35525e-20 0.324664 -0.124851 0
0.325085 -0.126061 7.86047e-19 0.406473 -0.0785222 1.30782e-18 0.400166 -0.126118 3.38813e-21 0.41275
-0.0785648 0 0.412729 0.240678 1.0842e-18 0.500153 0.252614 -2.1684e-19 0.498317 0.252386
1.0842e-19 0.496231 0.241035 0 0.496114 0.228892 -1.35525e-20 0.496204 0.228835 6.77626e-21
0.498715 0.229819 2.71051e-20 0.500074 0.25248 0 0.499935 0.240657 -1.6263e-19 0.500957
0.264863 0 0.500154 0.264689 0 0.500951 0.437443 0 0.549896 0.437406
[...]
POINT_DATA 2021
FIELD attributes 2
p 1 2021 float
2.01478 1.44264 2.37232 4.3688 0.0593194 0.0572075 -4.20193 -6.0394 -7.68716 -6.1626 -4.31915
0.496653 0.4645 0.111903 0.32692 0.175135 0.00333973 0.0272467 0.00539404 0.014404 0.00950924
0.0155463 0.00475342 0.00989094 0.000169052 0.00450065 -0.00131208 0.00235028 -0.000903821 0.00221745 -0.000268592
0.00225061 0.000721843 0.00342347 0 0 0.614782 0.610327 0.610176 0.614497 0.63566
0.634765 0.705607 0.702475 0.927692 0.924385 1.64226 1.76367 1.77912 2.23785 2.47839
-4.05075 1.37254 -4.10349 0.650755 -0.110858 -6.02918 0.572491 0.442775 0.190048 0.0294064
0.00744609 0.00955683 0.0056743 0.00111 -0.000530012 -0.000173119 -0.000299197 0.00272973 0 0.609744
0.613727 0.63235 0.69344 0.903234 1.95723 2.0302 3.13003 3.8742 7.3318 -3.28409
-1.04185 4.58891 -5.72842 -5.72058 -2.2657 0.335989 0.824395 1.02936 0.924294 0.521775
0.517574 0.847554 0.881453 0.427884 0.167452 0.0230787 0.00236671 0.00655701 0.00439297 0.000476312
-0.000894273 -0.00034059 -0.000183909 0.00290615 0 0.609053 0.612538 0.628714 0.68075 0.862747
1.8507 2.1367 5.13459 5.58894 4.82676 32.578 36.4621 52.0333 45.9902 4.73484
4.88251 3.37541 3.40859 2.67414 4.06774 0.840544 0.808677 0.788213 0.805963 1.39687
1.78585 1.8459 0.991917 0.482692 0.350146 0.127846 0.0135814 0.000447885 0.00691743 0.00612483
0.00258126 0.0011955 0.00154582 0.00213903 0.00354164 0 0.608178 0.611057 0.624281 0.665871
3.25146 3.74968 4.6818 4.76016 34.3529 32.6909 44.6125 50.7543 0.802131 0.781802
0.940135 1.7019 2.62635 1.14202 0.0813767 -4.87111 -5.29748 -2.7471 -0.227519 0.191617
0.0735914 -0.00543157 -0.0109089 -0.000963969 0.000876784 -0.00116586 -0.00166294 -0.000729811 0.000402624 0.00135007
0 0.607209 0.609434 0.619453 0.64989 0.740802 2.74582 1.73162 5.18405 3.28921
0.552498 -0.682567 0.698332 0.31065 0.31306 0.142944 -1.70968 0.672358 0.281105 -0.973832
-0.39305 0.0984852 0.0650954 -0.00284599 -0.0109177 -0.00106943 0.00145525 -0.000333181 -0.000820915 7.44302e-05
0.00114294 0.00162188 0 0.606244 0.607824 0.614606 0.633765 0.677338 0.693099 0.822334
1.15889 0.324093 0.622539 0.613826 0.618914 0.657088 0.626203 0.567162 0.384407 0.0598631
-0.564053 -0.377014 0.0466979 0.0595837 -0.00426528 -0.0151414 -0.00439573 -0.00075482 -0.00205558 -0.00230404
-0.00125009 -6.95372e-05 0.000483053 0 0.605381 0.606369 0.610184 0.566506 0.607144 0.607183
0.591137 0.496053 0.427504 0.077601 -0.435024 -0.348232 -0.000518164 0.0483253 -0.00781682 -0.0187782
-0.00646978 -0.00173985 -0.00264671 -0.0027202 -0.00157375 -0.000330373 0.000295151 0 0.604702 0.605196
0.606642 0.495547 0.606204 0.595622 0.570826 0.458422 0.428082 0.0869869 -0.364756 -0.332351
-0.0270563 0.0432234 -0.00821529 -0.0198539 -0.00721591 -0.0021497 -0.0029633 -0.00297814 -0.00178764 -0.000517653
0.000156819 0 0.604264 0.604415 0.6043 0.599797 0.457298 0.564558 0.425938 0.0900986
-0.342382 -0.327219 -0.0353564 0.041689 -0.00830977 -0.0202686 -0.00757186 -0.00237632 -0.00312179 -0.00307666
-0.0018442 -0.000554088 0.000142918 8.41485e-05 0.60411 0.604133 0.603458 0.597279 0.564048 0.445009
-10.2794 -11.1366 -11.7868 70.4925 60.0829 43.8985 29.679 2.91326 1.68291 4.38484
5.03932 4.16529 4.58219 6.22362 5.43779 2.01582 1.72751 2.12962 2.97115 3.68192
3.38078 3.99263 2.23774 1.90675 6.01812 56.2438 39.4401 1.92431 2.24668 3.66785
4.79493 2.2108 -4.51145 -11.1849 -9.8319 -3.20299 8.45734 7.00653 11.9105 4.75058
17.4656 20.8265 9.13885 10.5184 2.56616 1.49114 0.986861 1.648 19.7319 36.9181
5.61231 39.6408 20.3271 18.817 -58.6987 -58.4734 -58.6955 68.4627 68.3763 47.5626
44.7964 3.38135 3.08765 -5.01171 0.342035 0.190782 -5.06122 2.57611 3.95192 3.92394
2.85776 1.85328 1.75785 1.62077 0.947249 0.760981 -1.34234 17.0025 28.0997 13.2893
7.27489 -56.6211 -56.4129 -58.8291 -58.7384 13.8645 19.1005 18.477 -46.3115 -42.7467
-44.4259 -45.1656 -58.2111 -57.4812 -57.47 -57.6134 16.6194 15.8994 12.0176 -29.355
-27.9463 -45.3446 -37.0628 -58.8271 -45.9526 -58.6632 -48.094 10.9666 4.27645 10.4755
11.8137 9.06682 9.34461 9.634 4.4981 11.0906 0.899483 0.730098 3.71773 3.47477
4.0505 4.31265 47.7543 68.3443 -58.8808 -56.5447 6.48122 11.1008 -51.3221 -52.6083
-58.4612 4.464 6.27589 6.45165 6.47962 -31.4241 -40.0272 -49.4785 -29.8212 64.4124
60.798 41.6599 41.4083 -44.0201 -55.9909 -11.5236 -8.59715 -0.455713 -24.5414 -42.4536
42.9812 44.3071 64.3039 66.4759 -51.7062 -49.8386 -50.6111 0.360898 -9.60035 -12.6591
-11.6563 -21.6354 -24.8106 -57.8674 44.0419 21.853 22.1462 11.7031 12.0203 12.1925
13.1439 22.0225 44.504 10.7962 12.4593 11.9002 13.2404 -58.6047 -58.597 -58.0992
-58.0868 -57.3926 -56.763 -56.4046 45.8219 66.8339 -58.262 -58.5387 -58.9282 -58.1696
-29.8158 -35.0383 -32.7766 -13.7615 -1.62234 -4.92858 -50.5966 -50.2567 -57.9813 -13.1914
0.0707929 0.00948725 -13.4066 -58.2393 -56.7706 -51.2727 -12.5435 -10.2834 -3.77941 1.48114
-7.25146 -5.46583 -18.4522 -38.1647 -41.2725 -36.187 -52.0821 -53.1213 -52.8369 -3.99988
-17.3676 -18.0991 -4.59812 -56.0032 -51.8491 -56.0187 -3.46612 -9.15994 -16.4455 -11.7096
67.5292 46.8673 -54.2489 -54.4218 -56.795 -56.6584 -56.1813 -53.7246 -57.0872 -53.0267
-55.9365 -58.9048 -59.0298 -59.0721 -32.2078 -77.1592 -96.1856 -101.168 -103.523 -103.09
-48.7639 -50.187 -54.1948 -48.2399 -49.9111 -98.0669 -99.3552 -71.2529 -34.2889 -58.4245
-59.2402 -58.9042 -56.2335 -57.1128 -57.194 -57.1235 -57.5306 7.05684 5.9657 8.86084
-55.9849 -55.7023 -55.9163 -55.3995 -55.5121 -55.8375 -56.2585 -55.1306 -55.1143 2.03357
1.82749 0.703376 1.20396 4.27442 4.62839 1.40438 -55.8417 -56.2917 -56.9557 5.77231
6.60891 2.76734 0.872425 3.12244 -32.136 -38.1349 -37.4095 -31.7675 -54.6155 -55.109
-57.9942 -57.659 -54.9612 -55.7865 -38.8763 -43.228 -43.0086 -36.8691 -46.0791 -50.1394
-53.2963 -53.4426 -52.2731 123.571 131.429 146.777 146.865 -58.0935 -56.106 -56.372
-57.7779 -57.6171 4.34621 2.07124 2.94966 4.5373 -9.68166 -3.87395 -5.83288 -8.87043
-11.7534 -39.0444 -36.8003 -25.5173 -27.2844 -32.0984 -39.0679 -24.981 -24.9736 31.0824
41.2568 52.1021 37.9183 23.0656 19.1896 34.2079 26.1039 0.666779 0.824871 1.98507
34.0905 24.9152 17.1005 22.1646 2.88825 3.82749 4.478 4.58986 3.78126 6.71073
6.82663 4.68002 -9.37801 -8.26904 -1.38464 -10.2495 14.6835 9.14519 10.8205 -54.7101
-56.9123 -57.0439 -54.9063 -82.6751 -81.3943 -84.6346 -47.9478 -12.7316 -18.3599 -27.661
-55.9654 -52.7981 -55.3262 -56.3945 -73.9356 -73.6516 -58.2649 -59.5598 -49.5387 -47.8228
-50.1125 -50.2565 3.75438 3.81109 -0.625268 5.98951 5.64693 4.66718 5.33463 5.71848
6.1318 -54.1215 -53.7154 -68.7831 -67.9963 79.0165 94.1154 85.7146 112.118 106.43
88.8492 90.1629 161.854 164.187 153.368 121.637 98.4156 104.353 97.3114 117.65
-12.9092 -26.9636 -31.2755 -5.87524 -26.144 -52.0476 -41.7083 -6.34852 93.705 101.206
86.7917 78.2586 96.6908 88.3849 107.593 148.454 158.21 167.401 165.139 106.62
102.895 159.626 -32.5032 -7.89136 -38.1673 -28.4349 -47.6125 140.207 140.077 115.6
110.58 110.244 115.507 139.602 138.986 108.134 167.233 170.839 172.008 172.3
173.709 186.648 186.837 174.816 173.268 -33.033 -40.1358 -32.9901 -56.3852 -50.8051
-42.6898 -41.9538 -40.6925 -25.6262 2.68946 -2.67782 -0.745556 173.388 175.332 187.189
172.359 186.505 187.149 175.219 172.165 179.594 181.758 170.107 168.875 179.89
167.874 171.092 182.416 -52.4839 -37.6458 -36.4081 -55.6892 -55.7038 -55.8378 -36.235
-46.0796 -36.3591 -36.8571 -45.7193 -45.6837 -3.31357 -9.15807 -24.985 -25.0493 -32.9693
-43.5719 -32.9902 -32.6817 -42.9881 -21.2745 -19.022 -20.722 115.416 140.136 138.119
139.03 114.673 109.3 170.032 169.906 170.474 167.737 136.392 108.389 113.567
137.143 -57.1806 -54.2797 -52.8614 -52.6887 -55.6779 -46.0515 90.1499 93.4113 78.6378
-15.0668 -6.33763 -6.86452 -20.9928 54.4834 56.3425 69.9523 73.6165 -55.7913 -55.0155
-55.3135 -55.7814 -56.9526 -57.1894 -57.3335 -57.4497 -56.1095 -56.2249 -55.8293 -55.9032
-135.253 -109.585 -78.0124 -95.7334 -98.0991 -99.183 -99.1752 -83.2629 -78.8487 -92.4054
-70.5075 -85.4632 -132.963 -136.463 -128.355 -96.068 -96.859 -54.7637 -54.2337 -54.9428
-56.0161 -56.3064 -53.8561 -53.7907 6.69355 7.20709 13.6608 16.2598 13.7562 -50.9219
-50.2162 -45.7957 -46.0019 -46.1782 -45.9779 -45.9511 -45.731 12.9166 12.6491 16.8528
8.29645 8.10693 9.66124 10.1413 10.1673 8.5327 7.34903 8.10921 12.4273 15.7462
13.7584 0.834589 -0.796933 -2.98589 7.06351 6.24221 5.12083 6.4568 7.17101 -52.4101
-53.3201 -56.3066 -55.5977 -48.5561 -49.5632 13.5491 15.4944 16.8806 -46.835 -49.7299
-49.8633 -46.5555 -45.7126 11.3509 11.094 11.1367 9.54959 6.84842 -7.02079 -5.7879
5.45697 6.32787 6.29232 -48.4319 -48.7988 146.503 148.528 140.946 136.982 113.373
118.324 125.733 121.214 184.609 185.885 182.186 178.427 -55.6563 -55.5809 -52.9861
-52.901 169.635 183.356 185.056 172.993 174.449 186.571 171.027 182.141 169.622
179.275 -16.8228 -19.1372 -23.8866 -28.2071 -26.786 -22.9229 -8.86788 -3.52883 -3.94673
-9.14711 -14.1869 -13.8532 -1.0262 -9.05785 -9.92697 -15.0041 -18.1394 -8.19145 -8.9513
-24.9443 -20.2091 -9.65925 -0.786768 -3.05372 6.02158 -3.5038 6.00425 6.75433 3.37912
3.91125 4.629 4.19354 7.6735 6.05703 3.91974 5.77378 -18.9134 -16.0113 -26.3387
-21.4851 -56.3428 -58.0961 -58.706 -58.5681 3.01376 3.07932 5.01123 5.49594 4.25652
4.85332 -14.526 -40.2584 -57.2182 -65.4324 -53.2144 -31.8601 -58.8888 10.6749 10.1353
10.1584 -2.42089 0.209964 11.9672 17.2313 9.53577 23.5526 20.4546 10.3754 1.66862
6.80223 8.29703 13.1129 11.5497 6.81353 -53.333 -44.0451 -49.9459 -13.1294 -43.9714
-25.0407 -60.6956 -83.8079 108.706 92.7527 106.221 108.385 112.764 111.903 172.883
172.007 173.258 172.573 171.276 185.965 185.966 185.2 -57.9237 -58.1375 174.482
-56.106 -56.1043 -57.042 -57.2084 -56.9096 -55.8617 -150.063 -137.006 -136.868 -133.572
-157.685 -136.752 -132.454 -132.778 -119.452 -114.988 -80.3826 -73.104 -73.3787 -70.7922
-119.301 -120.978 -56.6908 -55.6726 -54.5647 -57.0598 9.39582 7.05648 10.6166 8.16832
10.9306 11.9552 12.326 13.283 14.0705 -55.213 -54.2873 -56.3269 -55.1385 -53.1862
-52.9195 -53.0384 -54.9689 -5.98754 -0.486125 -1.43039 -4.61033 9.20878 9.58006 6.82428
5.86582 7.57747 9.56578 8.80787 6.72755 1.36854 8.19299 7.09653 6.92952 8.61757
10.342 9.16219 11.9745 11.2639 -54.7029 -55.1211 -55.2862 -55.4119 -55.5628 -55.4152
-54.9174 -52.9106 -54.2318 -54.2404 -54.2579 -51.1786 -52.5692 -73.8563 -73.0724 -57.7071
-60.0104 -77.638 -68.481 -77.7768 -124.332 -128.968 -136.59 -79.5885 -97.6517 -107.609
-80.4415 -99.0077 128.771 113.607 148.54 151.763 -54.5752 -53.8072 -54.9125 -54.8951
-53.1064 143.886 167.873 146.146 -49.0562 -48.2091 -48.6553 -49.4396 -49.2516 -49.2693
-49.1954 -47.6793 -8.03656 -9.33044 -11.8797 -10.9852 -14.8167 -17.0191 -19.1756 -16.9459
-17.8849 74.7982 85.4919 -58.7122 51.1935 76.5122 64.986 75.5554 61.0114 13.7648
10.7867 45.5299 36.5423 8.37868 9.20768 3.64827 5.31785 5.1305 7.83463 6.74329
7.10799 7.49061 8.30459 -52.8684 -52.4202 -52.148 -52.7427 -1.04201 -0.52511 -1.10145
2.25052 5.70132 5.1473 7.08623 6.5217 -51.0568 -51.4652 -51.1929 138.213 136.294
171.189 184.782 189.089 189.375 186.865 185.341 -55.6651 -55.3761 -55.7031 -55.5521
-53.1153 -45.6538 -46.4764 -47.0949 -46.3023 -46.6296 -47.9246 -55.9835 -56.0084 -56.6024
-57.2759 -56.9754 -56.9603 -57.1186 -56.732 -55.1012 -116.012 -111.596 -135.076 -111.681
-133.953 -122.148 -123.614 -133.441 -56.0858 -57.4345 -55.8678 -54.5924 13.5929 12.2347
11.2036 12.3667 12.6295 13.2678 -36.894 -36.4024 -31.636 -31.072 -41.8701 -42.4326
-46.5757 -46.1689 -51.1587 -51.209 -45.6853 -52.1984 -51.8394 -6.18669 -0.949174 -11.4539
0.665252 2.10499 8.02091 7.55313 7.87779 4.29257 10.7075 7.36444 8.78023 10.2646
10.9083 10.8015 10.9419 12.7083 12.3802 2.37878 12.4454 14.8396 16.0101 3.92617
3.43814 3.17732 3.85343 -58.9937 -58.1222 -52.9682 -56.5598 -44.6904 -44.1329 -40.1123
-44.4602 -45.8974 -49.9607 -51.1955 -49.5875 -49.823 -49.5688 -47.2265 -52.2765 -47.2658
4.23795 -48.2658 -49.5806 141.023 131.833 129.424 129.483 129.863 114.385 106.963
188.665 188.137 187.143 -50.677 -51.0061 -1.48559 -0.921128 0.118211 -29.7963 -30.6864
186.056 186.891 180.367 183.326 181.872 181.501 -33.2056 -29.0501 -3.24599 -7.92039
-6.02405 -3.2979 -24.933 -13.8169 -10.3653 -13.5839 -20.0127 -4.57605 80.8772 56.5195
60.8415 21.0682 21.4322 68.0133 110.703 10.0906 7.15196 -2.20182 -2.46068 6.80951
7.60694 7.90163 6.08576 6.53801 24.521 16.2763 -0.458573 19.731 -1.77512 3.46596
8.1554 8.07864 68.0152 110.204 -54.8261 -55.9096 18.0921 91.5535 109.024 100.364
92.4014 108.026 109.144 126.563 134.301 143.18 -55.7505 81.5838 73.5627 50.371
12.4767 18.5311 16.7034 -75.6901 -56.7746 -56.7679 -56.7711 -55.214 -55.1333 -59.8436
-55.4079 -59.8691 -60.4231 23.2403 -6.45288 5.92781 10.5111 10.746 -1.39912 -1.50355
-2.60647 -55.6913 -54.2402 -1.02318 2.54327 2.85026 -57.5447 -56.9843 -56.1109 7.91714
7.60683 4.10227 -56.6386 41.626 49.6349 -66.7315 -58.9286 17.4413 14.9299 9.00987
6.92191 5.08544 8.53414 6.97563 -54.2479 -54.2103 -53.0323 -52.9554 -55.8885 -52.2967
-51.8228 -54.3458 -54.665 -54.6611 -54.1307 -55.2355 -54.7953 -54.6655 -54.3945 4.48715
-51.8134 -57.8525 -56.8247 100.536 129.169 144.731 155.195 168.105 162.941 160.753
148.754 188.247 -52.7826 -53.7159 -51.8156 -7.48288 -10.5205 -3.34997 -49.7581 -49.7832
-49.7582 -50.0367 -53.1777 -47.2904 -48.8222 -47.5787 -47.0984 -47.8024 28.7555 20.1792
-112.523 -120.151 -120.016 -120.659 -121.006 -73.8309 -96.4339 -73.8343 13.303 16.9125
-10.9325 12.0663 11.51 -5.4549 -7.03498 4.1346 2.5236 1.01932 0.670409 -0.600263
-2.21771 -0.962631 4.17163 4.55273 0.631974 2.86682 4.5239 2.43832 1.35698 13.2334
17.5071 -50.1027 5.50272 12.7908 8.52777 16.5121 8.49549 11.2035 14.2238 15.999
4.82516 5.03233 6.46321 5.88931 -2.05695 -3.968 -6.20779 -6.10928 4.87554 1.67595
4.38559 9.42891 15.3167 16.5225 8.21935 5.66898 3.04989 2.7377 7.18676 10.6566
11.3106 11.947 11.0787 5.70803 -3.54231 5.58291 -2.78445 3.2198 -3.55141 2.4576
10.9574 8.3047 12.32 6.965 9.43198 11.3319 10.7358 10.4383 7.92192 8.59929
9.11543 9.36006 7.88578 7.35575 7.36661 6.01712 -5.42867 -8.92907 -7.16028 6.48719
5.89517 7.95674 6.25091 -9.15952 -10.9249 1.09413 7.05808 5.89003 -1.66242 5.67952
-137.19 -137.818 -137.961 10.1891 -55.5606 -54.5352 -54.5952 5.2443 9.92332 5.33948
8.41571 10.9356 -55.7238 -55.6814 -55.082 -54.7886 -61.0206 -60.5345 -61.0299 -69.0483
-116.233 -120.15 -113.914 -120.883 -49.0087 -49.5411 -47.4858 -47.1847 -47.4475 -47.1617
-14.6385 -14.6377 -17.0636 -52.6717 -52.4869 -52.2469 5.13374 1.5065 4.97753 4.95116
-52.0471 -52.4761 -52.6004 141.784 151.131 -55.1858 -50.6661 13.2732 13.8239 11.5955
7.21585 11.4941 18.7652 4.20692 3.3235 4.65872 3.66121 -53.3714 -57.1692 -56.9906
-55.2042 7.75243 15.0606 11.1068 4.08815 4.24249 10.0488 8.80895 9.49896 8.60359
10.3906 12.4062 10.2521 5.81892 8.56769 8.22095 -54.1916 -50.209 -48.564 91.2011
80.2243 84.1954 66.7101 72.6978 -4.7509 -2.89264 0.329826 -1.4467 7.61386 8.13307
7.66002 8.26001 8.02185 7.5127 7.05961 116.815 106.782 94.7393 -73.7589 -57.1838
-55.8738 -54.7747 -54.5734 -54.2326 -54.1819 163.481 139.762 161.89 161.999 7.55134
4.41926 10.5397 11.2341 7.17819 8.50076 7.4113 6.87965 6.14053 2.78205 -2.31834
4.75229 5.38891 5.96966 4.36741 6.65091 14.3739 9.02178 -12.7207 15.6117 14.3206
7.67507 10.7781 15.8794 9.09637 -12.6086 -13.534 -11.5999 -2.80842 -4.82595 -13.0621
7.22868 5.30099 -14.644 -16.2625 7.21384 4.90532 -0.973488 -3.89121 -55.1147 -45.9735
12.9905 1.96282 0.305184 -0.0812071 5.98619 5.55001 6.47669 6.06682 6.02376 5.61083
0.335932 6.28074 6.91489 -0.408315 5.7341 4.75643 7.20671 6.69929 6.12339 106.173
86.634 121.998 123.782 5.19521 4.92406 3.47529 -55.3295 5.12478 6.10616 5.8843
-9.47494 -12.4137 -0.195859 6.26631 6.76246 5.39258 8.05754 5.20747 6.88115 3.90296
37.1038 -53.295 -55.0587 -54.5728 -54.5222 -54.5905 -2.85105 -4.22657 -12.5159 -12.3853
-12.4076 -3.42373 9.43284 3.14429 6.00899 7.12227 2.64299 2.42238 0.149123 -0.82567
-10.81 -5.15234 -4.05245 -11.1829 -4.11093 -12.0424 5.60768 -11.3304 -12.3431 -2.4017
1.247 6.37766 6.39187 5.82213 8.86416 0.282989 6.69239 -3.01477 -1.02332 4.37622
-0.743927 7.2341 4.84799 -9.76931 8.99101 -0.570676 6.17295 1.11339 1.48761 4.85157
5.20627 4.29083 5.01633 3.15125 7.65639 8.88491 5.47324 6.08841 0.997898 3.46829
11.076 5.53448 0.855226 -0.467836 3.64613 173.16 176.982 176.113 181.027 169.125
168.094 172.674 179.952 180.944 69.5333 73.7385 54.8892 -56.0679 -41.5623 -38.6805
-36.9779 -31.106 -43.7624 -52.013 -51.6619 -55.322 -46.7216 100.776 154.462 162.104
155.245 146.974 -56.5238 -56.1143 -56.4532 -56.2221 -55.7303 -56.182 -54.8129 -55.1203
-54.9598 3.88879 -0.394992 171.241 -18.5341 186.02 190.268 189.415 -51.2911 -47.2865
182.752 185.882 186.059 -16.2652 -51.1952 85.246 -54.9146 -55.0458 -55.309 -55.2701
-49.4614 189.39 -2.48717 189.505 185.525 189.099 7.32937 -64.3248 110.64 109.945
-55.8094 4.6816 -51.711 -53.0173 -51.8217 -138.194 138.716 -54.7588 159.222 -51.9407
-121.087 -121.004 72.2272 6.96167 2.61766 168.079 164.692 -15.4348 139.85 191.111
190.006 185.407 189.46 190.795 189.79 172.799 191.166 186.786 189.96 191.201
0.614799 0.610334 0.635649 0.704738 0.918654 1.62283 2.20896 -3.97925 1.35954 0.0245823
-4.09703 -5.86528 0.409419 0.0904655 -0.00168272 0.00518908 0.0102443 0.005627 0.00103454 -0.00049282
-0.000141371 0.000432995 0.00131064 0.000655014 -54.2309 -52.504 -134.412 -134.97 -48.0212 -48.4871
-49.1678 -47.8586 -48.3683 -49.0925 -49.7617 -47.3562 -94.9999 -74.617 -48.8764 -47.2124
-74.0555 -48.7987 -51.3128 -51.6698 -50.7777 -99.6569 -111.404 -129.891 -120.148 -119.968

U 3 2021 float
20.006 -0.0457839 -0.215723 20.0437 -0.0307667 -0.0740177 19.929 -0.00643284 -0.0964456 19.9354 -0.0557845
-0.606303 20.0176 -0.0593113 0.0399067 20.0179 -0.0592065 0.0399396 20.1681 -0.0781803 0.0574423
20.2328 -0.086352 0.0654692 20.2783 -0.0913078 0.1491 20.2911 -0.115994 0.26347 20.21
-0.117303 0.208359 19.9542 -0.0472077 0.0197961 19.9966 -0.0546367 0.0183029 20.0037 -0.0529166
0.00692748 19.8522 -0.0244838 0.0175934 19.851 -0.0212727 0.0140551 20.0058 -0.0526244 0.0018416
19.8534 -0.0198722 0.00957606 20.0043 -0.0518062 0.000459882 19.8525 -0.0182273 0.00867288 20.0025
-0.0509875 -7.30218e-05 19.8512 -0.0166864 0.00836468 20.001 -0.0502317 -0.000352997 19.8501 -0.0153643
0.0081246 19.9995 -0.0495507 -0.00053178 19.849 -0.0142131 0.00790563 19.9978 -0.0488952 -0.000654231
19.8479 -0.0131614 0.00771668 19.9961 -0.0482498 -0.000747933 19.8469 -0.0122039 0.0075196 19.9945
-0.0476168 -0.000778575 19.8458 -0.0113257 0.00743276 19.9925 -0.0469601 -0.000863494 19.8448 -0.0104002
0.00715881 19.8444 -0.0099183 0.00686099 19.9922 -0.0467478 -0.000899574 19.9996 -0.000341831 3.12601e-05
20 0 0 20 0 0 19.9996 -0.000341849 7.85745e-05 19.9983
-0.00078976 9.37876e-05 19.9984 -0.000799242 0.000278444 19.9942 -0.00155423 0.000368019 19.9941 -0.00151849
0.000999587 19.9788 -0.00280646 0.000336014 19.9796 -0.00312875 0.00357788 19.9464 -0.00545534 -0.0090534
19.9362 -0.00622024 -0.00794525 19.9389 0.00229027 -0.0143119 19.9276 -0.00543787 -0.0294948 19.9061
0.00525402 -0.0609809 20.233 -0.0726674 0.00176246 20.0483 -0.0289286 -0.0566619 20.2351 -0.0717431
0.00501994 19.9268 -0.0890986 0.0304528 20.0249 -0.118534 0.0818848 20.2325 -0.0863205 0.0649511
19.8541 -0.0296781 0.0233174 19.3069 0.119792 0.00984752 19.339 0.117214 0.010989 19.367
0.111491 0.0110665 19.3881 0.107188 0.0117634 19.4064 0.103391 0.0122761 19.4233 0.099802
0.0124589 19.4393 0.0964122 0.0124708 19.4542 0.0932242 0.0124048 19.4685 0.0901866 0.0122711
19.4816 0.0873082 0.0121633 19.4963 0.0845004 0.011887 19.505 0.0830614 0.0116305 20
0 0 19.9996 -0.000342369 0.000137189 19.9985 -0.000797497 0.000490007 19.9945 -0.00152406
0.00171901 19.9801 -0.00324898 0.00603413 19.9197 -0.00877657 0.0107626 19.9194 -0.00794864 0.00103378
19.8499 -0.0165596 -0.0957155 19.7933 -0.0204941 -0.0680828 19.9551 -0.0511216 -1.02398 20.4343
-0.0679121 -0.934889 20.2156 -0.0533839 -0.509222 19.9302 -0.0558056 -0.635799 20.31 -0.163471
0.452597 20.3103 -0.164351 0.456051 20.1009 -0.249426 0.581364 19.9908 -0.238578 0.300202