# vtk DataFile Version 2.0
tracks
ASCII
DATASET POLYDATA
POINTS 2585 float
-1.001 -0.05 0.0011 -0.900789 -0.0500215 0.00109731 -0.800577 -0.050043 0.00109463 -0.700366 -0.0500645
0.00109196 -0.600155 -0.0500859 0.00108929 -0.499943 -0.0501072 0.00108663 -0.424945 -0.0501111 0.00107893
-0.349947 -0.050152 0.0010688 -0.274949 -0.0501925 0.00105876 -0.19995 -0.0502327 0.00104882 -0.124952
-0.0502724 0.00103897 -0.0499538 -0.0502818 0.0010392 0.0250446 -0.0502905 0.00104795 0.100043 -0.0502993
0.00105676 0.175041 -0.0503082 0.00106565 0.25004 -0.0503171 0.00107462 0.400037 -0.050311 0.00109071
0.550035 -0.050309 0.00110494 0.700032 -0.050307 0.00111936 0.85003 -0.050305 0.00113396 1.00003
-0.050303 0.00114875 1.15003 -0.0503136 0.00115596 1.30002 -0.0503192 0.00116044 1.45002 -0.0503248
0.00116494 1.60002 -0.0503304 0.00116945 1.75002 -0.050336 0.00117399 1.90002 -0.0503445 0.00117685
2.05002 -0.0503509 0.00117878 2.20001 -0.0503573 0.00118072 2.35001 -0.0503637 0.00118266 2.50001
-0.0503701 0.00118461 2.65001 -0.050378 0.00118565 2.80001 -0.050386 0.00118635 2.95001 -0.050394
0.00118704 3.10001 -0.050402 0.00118773 3.25001 -0.05041 0.00118842 3.40001 -0.0504178 0.00118871
3.55001 -0.0504265 0.00118928 3.70001 -0.0504352 0.00118986 3.85001 -0.050444 0.00119044 4.00001
-0.0504527 0.00119102 4.15 -0.0504604 0.0011911 4.3 -0.0504699 0.00119177 4.45 -0.0504794
0.00119244 4.6 -0.0504889 0.00119311 4.75 -0.0504984 0.00119379 4.9 -0.050506 0.00119378
5.05 -0.050516 0.00119461 5.2 -0.0505259 0.00119544 5.35 -0.0505359 0.00119628 5.5
-0.0505459 0.00119711 5.65 -0.0505534 0.00119706 5.8 -0.0505637 0.00119805 5.95 -0.050574
0.00119904 6.1 -0.0505844 0.00120003 6.25 -0.0505947 0.00120102 6.4 -0.0506021 0.00120095
6.55 -0.0506126 0.00120208 6.7 -0.0506231 0.0012032 6.85 -0.0506336 0.00120432 7
-0.0506442 0.00120545 7.15 -0.0506515 0.00120536 7.3 -0.0506622 0.00120659 7.45 -0.0506729
0.00120782 7.6 -0.0506835 0.00120905 7.75 -0.0506942 0.00121029 7.9 -0.0507015 0.00121018
8.05 -0.0507123 0.0012115 8.2 -0.0507231 0.00121282 8.35 -0.0507339 0.00121414 8.5
-0.0507447 0.00121547 8.65 -0.0507519 0.00121536 8.8 -0.0507627 0.00121675 8.95 -0.0507736
0.00121815 9.1 -0.0507845 0.00121955 9.25 -0.0507953 0.00122095 9.4 -0.0508025 0.00122082
9.55 -0.0508592 0.00122292 9.7 -0.0509668 0.00122574 9.85 -0.0511254 0.00122928 10
-0.0513349 0.00123353 -1.001 -0.05 0.0537316 -0.900807 -0.0501058 0.0535765 -0.800614 -0.0502118
0.0533942 -0.700421 -0.0503412 0.0531781 -0.600229 -0.0505015 0.0529262 -0.500035 -0.0506924 0.0526388
-0.425004 -0.0509401 0.0524159 -0.349973 -0.051277 0.0521259 -0.274943 -0.0516611 0.0518569 -0.199912
-0.0520788 0.0516302 -0.124879 -0.0524807 0.051486 -0.0498864 -0.0527463 0.0515227 0.0251064 -0.0529654
0.0516885 0.100099 -0.0531798 0.0519228 0.175092 -0.0534034 0.0522053 0.250087 -0.0536222 0.052523
0.400077 -0.0540061 0.0531591 0.550067 -0.0543876 0.0536745 0.700057 -0.054728 0.0541412 0.850047
-0.0550272 0.0545586 1.00003 -0.0552932 0.0549264 1.14679 -0.0556594 0.0552048 1.29355 -0.0559942
0.0554645 1.44032 -0.0563262 0.0556905 1.58708 -0.0566557 0.0558827 1.70438 -0.056917 0.0560094
1.7135 -0.0569381 0.0560179 1.72263 -0.0569593 0.0560263 1.73176 -0.0569806 0.0560347 1.74089
-0.057002 0.0560429 1.75002 -0.0570235 0.0560511 1.90002 -0.0573787 0.0561843 2.05002 -0.0577295
0.0563002 2.20001 -0.0580764 0.0563985 2.35001 -0.0584195 0.0564791 2.50001 -0.0587587 0.056542
2.65001 -0.0591032 0.0565939 2.80001 -0.0594473 0.056639 2.95001 -0.0597905 0.0566765 3.10001
-0.0601329 0.0567063 3.25001 -0.0604744 0.0567284 3.40001 -0.0608171 0.0567454 3.55001 -0.061161
0.0567617 3.70001 -0.0615034 0.056776 3.85001 -0.0618444 0.0567883 4.00001 -0.0621838 0.0567985
4.15 -0.0625212 0.0568063 4.3 -0.0628623 0.0568151 4.45 -0.0632018 0.0568232 4.6
-0.0635399 0.0568305 4.75 -0.0638766 0.0568371 4.9 -0.0642085 0.0568414 5.05 -0.0645457
0.0568476 5.2 -0.0648815 0.0568535 5.35 -0.0652159 0.056859 5.5 -0.0655489 0.0568641
5.65 -0.0658754 0.0568666 5.8 -0.0662081 0.0568716 5.95 -0.0665397 0.0568764 6.1
-0.06687 0.056881 6.25 -0.067199 0.0568854 6.4 -0.0675202 0.0568868 6.55 -0.0678485
0.0568912 6.7 -0.0681756 0.0568954 6.85 -0.0685015 0.0568995 7 -0.0688261 0.0569034
7.15 -0.0691422 0.0569041 7.3 -0.0694659 0.0569081 7.45 -0.0697884 0.0569119 7.6
-0.0701097 0.0569157 7.75 -0.0704298 0.0569193 7.9 -0.0707408 0.0569195 8.05 -0.0710598
0.0569233 8.2 -0.0713776 0.056927 8.35 -0.0716943 0.0569307 8.5 -0.0720098 0.0569344
8.65 -0.0723158 0.0569344 8.8 -0.07263 0.0569382 8.95 -0.0729431 0.0569418 9.1
-0.0732549 0.0569454 9.25 -0.0735657 0.0569488 9.4 -0.0738665 0.0569484 9.55 -0.0741763
0.0569519 9.7 -0.0744856 0.0569554 9.85 -0.0747943 0.0569588 10 -0.0751026 0.0569623
-1.001 -0.05 0.106363 -0.900818 -0.0500777 0.106138 -0.800636 -0.0501532 0.105866 -0.700455
-0.0502552 0.105547 -0.600274 -0.0504272 0.105004 -0.50009 -0.050669 0.104242 -0.424996 -0.0509555
0.103656 -0.349901 -0.0513033 0.103049 -0.274807 -0.0516554 0.102511 -0.199711 -0.0519528 0.102081
-0.124607 -0.0522943 0.101978 -0.0496048 -0.0525414 0.102091 0.0253974 -0.0527333 0.102321 0.100399
-0.0529123 0.102633 0.175401 -0.0531117 0.10303 0.250411 -0.0533311 0.103512 0.400346 -0.0537351
0.104513 0.550283 -0.0541376 0.105386 0.70022 -0.0545013 0.106171 0.850157 -0.0548344 0.10679
1.00009 -0.0551366 0.10724 1.15007 -0.0555745 0.107505 1.30006 -0.0558685 0.107802 1.45005
-0.056112 0.108078 1.60003 -0.0563495 0.108322 1.75002 -0.0565811 0.108533 1.90002 -0.056887
0.108677 2.05002 -0.0571292 0.108832 2.20001 -0.0573655 0.108971 2.35001 -0.0575994 0.109093
2.50001 -0.0578307 0.109198 2.65001 -0.0581189 0.109267 2.80001 -0.0583646 0.109334 2.95001
-0.0586092 0.109394 3.10001 -0.0588531 0.109447 3.25001 -0.0590962 0.109492 3.40001 -0.0593827
0.109526 3.55001 -0.0596325 0.109559 3.70001 -0.0598803 0.109591 3.85001 -0.0601266 0.10962
4 -0.0603713 0.109647 4.15 -0.0606518 0.109673 4.3 -0.0609016 0.109694 4.45
-0.0611495 0.109715 4.6 -0.0613959 0.109735 4.75 -0.0616407 0.109754 4.9 -0.0619148
0.109776 5.05 -0.0621627 0.109791 5.2 -0.0624089 0.109806 5.35 -0.0626536 0.10982
5.5 -0.062897 0.109834 5.65 -0.0631647 0.109855 5.8 -0.0634101 0.109866 5.95
-0.063654 0.109877 6.1 -0.0638965 0.109887 6.25 -0.0641379 0.109897 6.4 -0.0643996
0.109917 6.55 -0.0646421 0.109925 6.7 -0.0648832 0.109932 6.85 -0.0651231 0.10994
7 -0.0653618 0.109947 7.15 -0.0656178 0.109966 7.3 -0.0658572 0.109971 7.45
-0.0660953 0.109977 7.6 -0.0663322 0.109982 7.75 -0.0665679 0.109987 7.9 -0.0668182
0.110005 8.05 -0.0670543 0.110009 8.2 -0.0672892 0.110012 8.35 -0.0675229 0.110016
8.5 -0.0677555 0.110019 8.65 -0.0680004 0.110037 8.8 -0.068233 0.11004 8.95
-0.0684643 0.110042 9.1 -0.0686945 0.110044 9.25 -0.0689235 0.110047 9.4 -0.0691627
0.110063 9.55 -0.0693921 0.110064 9.7 -0.0696209 0.110065 9.85 -0.0698492 0.110066
10 -0.070077 0.110067 -1.001 -0.05 0.158995 -0.900796 -0.0500882 0.15877 -0.800593
-0.0501923 0.158424 -0.700392 -0.0503533 0.157687 -0.600196 -0.0505842 0.156474 -0.499992 -0.0508767
0.154633 -0.42472 -0.0514834 0.153029 -0.349436 -0.0519503 0.152107 -0.274149 -0.0523463 0.151542
-0.198859 -0.0527403 0.151247 -0.123699 -0.0530564 0.151299 -0.0487804 -0.0531777 0.151462 0.0261372
-0.0532541 0.151942 0.101053 -0.0533916 0.152648 0.175967 -0.0535557 0.153446 0.250944 -0.0537073
0.154275 0.400783 -0.0539145 0.155697 0.550624 -0.0544163 0.156876 0.700468 -0.0548839 0.157631
0.850313 -0.0552781 0.15823 1.00014 -0.0556412 0.158661 1.15012 -0.0561408 0.158907 1.30009
-0.0564961 0.159184 1.45007 -0.0567588 0.159452 1.60005 -0.0569451 0.159707 1.75002 -0.0571257
0.159929 1.90002 -0.0573815 0.160084 2.05002 -0.0575731 0.16025 2.20002 -0.0577526 0.160402
2.35001 -0.0579234 0.160538 2.50001 -0.0580918 0.160657 2.65001 -0.0583175 0.160741 2.80001
-0.0585007 0.160823 2.95001 -0.0586816 0.160898 3.10001 -0.0588608 0.160966 3.25001 -0.0590395
0.161027 3.40001 -0.0592616 0.161077 3.55001 -0.059447 0.161126 3.70001 -0.0596296 0.161173
3.85001 -0.0598101 0.161219 4 -0.059989 0.161263 4.15 -0.0602035 0.161305 4.3
-0.0603876 0.161343 4.45 -0.060569 0.16138 4.6 -0.0607483 0.161417 4.75 -0.0609261
0.161453 4.9 -0.0611329 0.161493 5.05 -0.0613138 0.161525 5.2 -0.0614925 0.161557
5.35 -0.0616692 0.161588 5.5 -0.0618446 0.161619 5.65 -0.0620439 0.161657 5.8
-0.0622213 0.161686 5.95 -0.0623967 0.161713 6.1 -0.0625705 0.161741 6.25 -0.062743
0.161768 6.4 -0.0629355 0.161805 6.55 -0.0631092 0.16183 6.7 -0.0632811 0.161855
6.85 -0.0634515 0.161879 7 -0.0636207 0.161904 7.15 -0.0638066 0.161939 7.3
-0.0639765 0.161962 7.45 -0.0641447 0.161984 7.6 -0.0643116 0.162007 7.75 -0.0644773
0.162029 7.9 -0.064657 0.162063 8.05 -0.064823 0.162084 8.2 -0.0649876 0.162105
8.35 -0.0651508 0.162125 8.5 -0.0653129 0.162146 8.65 -0.0654868 0.16218 8.8
-0.0656489 0.1622 8.95 -0.0658094 0.162219 9.1 -0.0659686 0.162238 9.25 -0.0661266
0.162257 9.4 -0.0662944 0.16229 9.55 -0.0664527 0.162307 9.7 -0.0666102 0.162325
9.85 -0.0667669 0.162342 10 -0.0669232 0.162359 -1.001 -0.05 0.211626 -0.947631
-0.0500804 0.211469 -0.894262 -0.0501653 0.211279 -0.840893 -0.0502548 0.211054 -0.787525 -0.0503889
0.210764 -0.724301 -0.0506325 0.210285 -0.679426 -0.0509101 0.209634 -0.634556 -0.0512448 0.208755
-0.589689 -0.0515834 0.207738 -0.544825 -0.051927 0.206584 -0.499928 -0.0522768 0.205289 -0.469487
-0.0525701 0.204237 -0.439048 -0.0528735 0.203122 -0.408605 -0.0531614 0.202133 -0.378157 -0.053435
0.201265 -0.330105 -0.0538514 0.200029 -0.289044 -0.0541912 0.199118 -0.247979 -0.0545306 0.198422
-0.206909 -0.0548742 0.19804 -0.165838 -0.0551823 0.197947 -0.124884 -0.0554154 0.198119 -0.0496121
-0.0557191 0.198829 0.0256573 -0.0558536 0.199777 0.100922 -0.0559599 0.201058 0.176185 -0.0560996
0.202419 0.251487 -0.0562326 0.203573 0.25211 -0.0562335 0.203581 0.252732 -0.0562345 0.203589
0.253354 -0.0562354 0.203598 0.253977 -0.0562363 0.203606 0.254605 -0.0562372 0.203614 0.328738
-0.0563474 0.204582 0.402873 -0.0564595 0.205425 0.477009 -0.0565737 0.206141 0.551146 -0.0567168
[...]
POINT_DATA 2585
FIELD attributes 4
age 1 2585 float
0 0.00501121 0.0100224 0.0150336 0.0200448 0.0250561 0.0288056 0.0325533 0.036301 0.0400488 0.0437965
0.0475449 0.0512905 0.0550361 0.0587817 0.0625272 0.0700239 0.0775229 0.0850219 0.0925208 0.10002
0.10752 0.115019 0.122519 0.130019 0.137519 0.145019 0.152519 0.160019 0.167518 0.175018
0.182518 0.190018 0.197517 0.205017 0.212517 0.220017 0.227516 0.235016 0.242516 0.250015
0.257515 0.265015 0.272515 0.280015 0.287514 0.295014 0.302514 0.310014 0.317513 0.325013
0.332513 0.340013 0.347512 0.355012 0.362512 0.370012 0.377512 0.385011 0.392511 0.400011
0.407511 0.415011 0.42251 0.43001 0.43751 0.44501 0.45251 0.460009 0.467509 0.475009
0.482509 0.490009 0.497508 0.505008 0.512508 0.520008 0.527507 0.535005 0.542503 0.55
0 0.00502604 0.0100533 0.0150747 0.0200879 0.025093 0.0288321 0.0325652 0.0362916 0.0400112
0.0437246 0.0474308 0.05113 0.0548274 0.0585247 0.0622238 0.0696345 0.0770705 0.0845212 0.0919868
0.099467 0.106799 0.114133 0.121467 0.128803 0.134667 0.135124 0.13558 0.136037 0.136493
0.13695 0.14445 0.15195 0.15945 0.166948 0.174447 0.181945 0.189442 0.196939 0.204437
0.211933 0.219431 0.226928 0.234425 0.241922 0.249419 0.256917 0.264414 0.271912 0.279409
0.286907 0.294406 0.301903 0.309401 0.3169 0.324398 0.331897 0.339395 0.346894 0.354392
0.361891 0.36939 0.376889 0.384388 0.391887 0.399387 0.406887 0.414386 0.421885 0.429385
0.436885 0.444385 0.451885 0.459385 0.466885 0.474385 0.481886 0.489387 0.496887 0.504388
0.511889 0.51939 0.526891 0.534392 0.541893 0.549394 0 0.00502803 0.0100579 0.0150819
0.0200994 0.0251105 0.0288576 0.0325975 0.0363282 0.0400541 0.0437702 0.0474748 0.0511737 0.0548715
0.0585684 0.0622648 0.0696631 0.0770885 0.0845319 0.0919975 0.0994848 0.106988 0.114492 0.122
0.129508 0.137018 0.144533 0.152042 0.15955 0.167058 0.174564 0.182077 0.189583 0.197088
0.204593 0.212098 0.21961 0.227115 0.23462 0.242125 0.24963 0.257142 0.264648 0.272153
0.279659 0.287164 0.294677 0.302183 0.309689 0.317195 0.324701 0.332214 0.33972 0.347226
0.354732 0.362239 0.369752 0.377259 0.384765 0.392272 0.399779 0.407293 0.4148 0.422307
0.429814 0.437321 0.444836 0.452343 0.45985 0.467358 0.474865 0.48238 0.489888 0.497396
0.504903 0.512411 0.519927 0.527435 0.534943 0.542452 0.54996 0 0.00503013 0.0100663
0.0150996 0.0201271 0.0251496 0.0289154 0.0326693 0.0364112 0.0401427 0.0438575 0.0475524 0.0512419
0.0549303 0.058618 0.0623092 0.0696963 0.0771197 0.0845737 0.0920441 0.0995358 0.107048 0.114561
0.122079 0.129602 0.137125 0.144654 0.152177 0.1597 0.167223 0.174745 0.182273 0.189794
0.197314 0.204835 0.212355 0.219882 0.227402 0.234922 0.242442 0.249962 0.25749 0.26501
0.272531 0.280051 0.287572 0.2951 0.302621 0.310142 0.317663 0.325184 0.332713 0.340234
0.347755 0.355277 0.362798 0.370327 0.377849 0.38537 0.392892 0.400414 0.407943 0.415466
0.422988 0.43051 0.438032 0.445562 0.453085 0.460607 0.46813 0.475653 0.483183 0.490706
0.498229 0.505752 0.513275 0.520806 0.528329 0.535852 0.543376 0.550899 0 0.0026828
0.00536728 0.00805345 0.010739 0.0139183 0.0161735 0.0184282 0.0206822 0.0229354 0.0251895 0.0267155
0.0282394 0.0297604 0.0312785 0.0336688 0.0357035 0.0377325 0.039756 0.0417739 0.0437804 0.047459
0.0511391 0.0548204 0.0585083 0.062209 0.0622397 0.0622703 0.062301 0.0623317 0.0623626 0.0660147
0.0696767 0.0733486 0.0770306 0.0807226 0.0813112 0.0818997 0.0824883 0.083077 0.0836513 0.086812
0.0899752 0.0931411 0.0963095 0.0994799 0.107 0.114522 0.122049 0.129581 0.137117 0.144661
0.152197 0.159734 0.16727 0.174807 0.182349 0.189885 0.19742 0.204954 0.212489 0.220031
0.227565 0.2351 0.242634 0.250169 0.257711 0.265246 0.272781 0.280316 0.287852 0.295394
0.30293 0.310465 0.318001 0.325536 0.333079 0.340615 0.348151 0.355687 0.363223 0.370767
0.378303 0.385839 0.393376 0.400912 0.408456 0.415993 0.423529 0.431066 0.438603 0.446148
0.453685 0.461222 0.468759 0.476297 0.483841 0.491379 0.498916 0.506454 0.513992 0.521537
0.529075 0.536613 0.544151 0.551689 0 0.00126445 0.00252927 0.00379478 0.00506109 0.00632823
0.0101158 0.0139117 0.0177192 0.0215333 0.0253299 0.02691 0.02848 0.0300431 0.0315991 0.0329843
0.0333139 0.0336432 0.0339721 0.0343008 0.0346295 0.0364577 0.038279 0.0400912 0.0418982 0.0436957
0.0454963 0.0473013 0.0491184 0.0509405 0.0527667 0.0529276 0.0530885 0.0532495 0.0534105 0.0535798
0.0552486 0.05692 0.0585942 0.0602713 0.061951 0.0656468 0.0693595 0.0730903 0.0768319 0.0805825
0.084346 0.0881087 0.0918721 0.0956382 0.0994066 0.106942 0.11448 0.122022 0.129568 0.137118
0.144683 0.152236 0.159788 0.167341 0.174893 0.182453 0.190005 0.197556 0.205107 0.212658
0.220217 0.227767 0.235318 0.242869 0.25042 0.257978 0.265529 0.273081 0.280632 0.288183
0.295742 0.303294 0.310845 0.318397 0.325948 0.333508 0.34106 0.348611 0.356163 0.363716
0.371275 0.378827 0.38638 0.393932 0.401484 0.409044 0.416597 0.424149 0.431702 0.439255
0.446815 0.454368 0.461921 0.469474 0.477027 0.484588 0.492141 0.499694 0.507248 0.514801
0.522362 0.529916 0.537469 0.545023 0.552576 0 0.00126545 0.00253142 0.0037979 0.00506489
0.00633242 0.00822681 0.0101236 0.0120228 0.0139249 0.0158291 0.0177466 0.0196689 0.0215922 0.0235188
0.0254576 0.0264288 0.0273973 0.0283614 0.0293211 0.0302806 0.0307549 0.0312276 0.0316983 0.0321668
0.0326781 0.0331351 0.0335901 0.0340431 0.0344941 0.0349425 0.035853 0.0367602 0.0376633 0.0385622
0.0394521 0.0403413 0.041229 0.042116 0.0430027 0.0438899 0.0452579 0.0466329 0.0480151 0.0493598
0.0528847 0.0547137 0.0565563 0.0584103 0.060271 0.0621324 0.0640037 0.0658762 0.0677509 0.0696282
0.0715095 0.0733982 0.0752813 0.0771606 0.0790419 0.0809281 0.0840434 0.0871628 0.0902838 0.0934064
0.0960464 0.0968211 0.097596 0.098371 0.0991461 0.0999214 0.107514 0.115109 0.122708 0.130311
0.137917 0.145549 0.153156 0.160758 0.16836 0.175961 0.183582 0.191181 0.198779 0.206376
0.213974 0.22159 0.229187 0.236782 0.244378 0.251975 0.259589 0.267185 0.274781 0.282376
0.289972 0.297585 0.305181 0.312776 0.320371 0.327967 0.335578 0.343174 0.350768 0.358363
0.365958 0.373568 0.381163 0.388758 0.396352 0.403947 0.411556 0.419151 0.426745 0.434339
0.441933 0.449541 0.457135 0.464729 0.472323 0.479917 0.487524 0.495118 0.502711 0.510304
0.517898 0.525503 0.533096 0.540689 0.548283 0.555876 0 0.00126279 0.00252625 0.00379075
0.00505642 0.00632328 0.0082333 0.0101453 0.0120611 0.0139802 0.0159047 0.017822 0.0197523 0.0216954
0.0236512 0.0256295 0.0266295 0.0276303 0.0286315 0.0296319 0.0306443 0.0308912 0.0311382 0.0313848
0.0316294 0.0318192 0.0325704 0.0333093 0.0340351 0.0347472 0.0354513 0.0358985 0.0363439 0.0367877
0.0372301 0.0376665 0.0381039 0.0385385 0.0389707 0.0394021 0.039831 0.0402629 0.0406948 0.0411268
0.0415594 0.0419945 0.0424298 0.0428645 0.0432996 0.0437355 0.0441737 0.0450503 0.0459363 0.0468324
0.04774 0.0486648 0.0494206 0.0501754 0.0509326 0.0516932 0.0526305 0.0527749 0.0529193 0.0530638
0.0532083 0.053353 0.0543063 0.0552585 0.0562127 0.0571693 0.0581282 0.0590963 0.0600635 0.0610317
0.0620029 0.0629759 0.0649434 0.0669056 0.0688625 0.0708238 0.0727688 0.0746999 0.0766456 0.0786062
0.0805708 0.0825402 0.0864993 0.0904499 0.0943749 0.098285 0.102198 0.110024 0.117816 0.125539
0.133204 0.140872 0.14857 0.156245 0.163917 0.171584 0.179249 0.186929 0.194593 0.202254
0.209914 0.217573 0.225247 0.232905 0.240563 0.248218 0.255874 0.263544 0.271199 0.278854
0.286508 0.294161 0.301827 0.30948 0.317133 0.324784 0.332436 0.340098 0.347749 0.355399
0.363049 0.370698 0.378357 0.386006 0.393655 0.401302 0.40895 0.416605 0.424253 0.431899
0.439545 0.44719 0.454843 0.462489 0.470133 0.477777 0.485421 0.493071 0.500714 0.508357
0.515999 0.52364 0.531287 0.538929 0.54657 0.55421 0.56185 0 0.00126442 0.00252948
0.00379519 0.00506155 0.00632916 0.00824621 0.0101657 0.0120884 0.0140175 0.0159587 0.0169288 0.0179018
0.0188779 0.0198572 0.0208397 0.0218273 0.0228231 0.0238278 0.0248416 0.0258657 0.0263833 0.0269027
0.0274258 0.0279525 0.0284855 0.0287757 0.0290673 0.0293613 0.0296579 0.0297558 0.0300559 0.0303575
0.0306599 0.0309621 0.0312727 0.0313697 0.0314667 0.0315639 0.0316613 0.0317323 0.031767 0.0318017
0.0318364 0.0318711 0.0319041 0.0320676 0.032231 0.0323942 0.0325572 0.0327216 0.0329003 0.0330786
0.0332564 0.0334313 0.0335603 0.033666 0.0337712 0.0338757 0.0339793 0.0340843 0.034195 0.0343041
0.0344119 0.0345185 0.0346057 0.0346598 0.0347136 0.0347671 0.0348202 0.0348722 0.03497 0.0350674
0.0351643 0.0352608 0.0353552 0.0354769 0.0355973 0.0357161 0.035834 0.0360257 0.0361267 0.0362272
0.0363273 0.0364273 0.0365173 0.036606 0.0366947 0.0367835 0.0368721 0.0370372 0.037156 0.0372746
0.037393 0.0375113 0.037628 0.0378466 0.0380637 0.0382808 0.0384984 0.0387126 0.0389303 0.0391475
0.039365 0.039583 0.0398008 0.0400214 0.0402404 0.0404597 0.0406793 0.0408996 0.0411197 0.0413394
0.0415595 0.0417803 0.0420035 0.042228 0.0424506 0.0426735 0.042897 0.0431215 0.0434603 0.0438008
0.044147 0.0444992 0.0446583 0.0448168 0.0449757 0.045135 0.0452946 0.0454553 0.045943 0.0464232
0.0469037 0.0473795 0.0478764 0.0483939 0.0489011 0.0494095 0.0499228 0.0504435 0.05051 0.0505766
0.0506433 0.0507102 0.0507758 0.0517876 0.0528428 0.0539435 0.0550046 0.0560787 0.0572842 0.0584676
0.0596533 0.0608451 0.0620368 0.0624234 0.0628091 0.0631947 0.0635805 0.0640129 0.0648357 0.0656502
0.0664629 0.067278 0.0680918 0.0681563 0.0682206 0.0682849 0.0683491 0.068413 0.0695491 0.0706715
0.071792 0.0729103 0.074022 0.0751762 0.0763526 0.0775328 0.0787143 0.0798985 0.0812826 0.0826677
0.0840585 0.0854544 0.0871846 0.0880345 0.0888803 0.089722 0.0905598 0.091393 0.0959057 0.100393
0.104807 0.109129 0.113319 0.121496 0.12961 0.137651 0.145621 0.153507 0.161267 0.169028
0.176786 0.184541 0.192293 0.200042 0.20779 0.215537 0.223281 0.231024 0.237437 0.24385
0.250262 0.256673 0.263182 0.264488 0.265794 0.2671 0.268406 0.269712 0.277446 0.28518
0.292915 0.30065 0.308384 0.31611 0.323844 0.331579 0.339313 0.347047 0.354766 0.3625
0.370234 0.377968 0.385702 0.393414 0.401147 0.40888 0.416614 0.424347 0.432053 0.439785
0.447518 0.45525 0.462982 0.470683 0.478414 0.486145 0.493877 0.501608 0.509303 0.517033
0.524763 0.532493 0.540223 0.547912 0.55564 0.563367 0.571096 0.578824 0 0.00125411
0.00250916 0.00376553 0.00502335 0.00628273 0.00821404 0.010148 0.0120848 0.0140287 0.0159868 0.0169595
0.0179361 0.0189167 0.0199014 0.0208902 0.0218847 0.0228899 0.0239068 0.0249355 0.0259772 0.0265058
0.0270377 0.0275762 0.0281216 0.0286758 0.0292414 0.0298147 0.0304009 0.0310011 0.0316279 0.0319468
0.0322656 0.0325852 0.0329057 0.0332408 0.0333114 0.033382 0.0334526 0.0335233 0.033581 0.0336582
0.0337339 0.0338087 0.0338829 0.0339452 0.0341165 0.0342845 0.0344493 0.0346105 0.0347772 0.0349199
0.0350599 0.0351972 0.0353312 0.0354506 0.0355709 0.0356906 0.0358098 0.0359273 0.0360391 0.0361565
0.0362707 0.0363821 0.0364928 0.0366392 0.0367462 0.0368531 0.0369597 0.0370661 0.0371637 0.0373558
0.0375479 0.0377432 0.0379414 0.038357 0.0385959 0.038836 0.0390739 0.0393097 0.0395406 0.0400036
0.0404609 0.0409146 0.0413654 0.0418116 0.0422685 0.0427113 0.0431574 0.0436066 0.0440588 0.0445328
0.0450007 0.04548 0.0459641 0.0464561 0.0473039 0.0481713 0.0490522 0.0499234 0.0517992 0.0529237
0.0540495 0.0551992 0.0563692 0.0575731 0.0588349 0.0600694 0.0612869 0.0625139 0.0637466 0.0646338
0.0655085 0.0663825 0.0672512 0.068386 0.0687014 0.0690169 0.0693325 0.0696488 0.0699653 0.0706723
0.07138 0.0720883 0.0727976 0.0736546 0.0741635 0.0746722 0.0751806 0.0756879 0.0761927 0.0774374
0.078686 0.0799424 0.0811994 0.0824559 0.0849499 0.0874477 0.0899144 0.0923375 0.0947337 0.0995685
0.104355 0.109001 0.113511 0.117867 0.121562 0.125243 0.12891 0.132562 0.13716 0.141591
0.14597 0.150298 0.154575 0.158803 0.166563 0.174331 0.182098 0.189863 0.197627 0.205372
0.213134 0.220897 0.228659 0.23642 0.244153 0.251913 0.259673 0.267433 0.275193 0.282917
0.290676 0.298435 0.306193 0.313952 0.32167 0.329427 0.337185 0.344943 0.352701 0.360412
0.368168 0.375924 0.383681 0.391438 0.399143 0.406898 0.414653 0.422408 0.430163 0.437863
0.445616 0.45337 0.461123 0.468877 0.476571 0.484323 0.492075 0.499827 0.507579 0.515268
0.523018 0.530768 0.538518 0.546268 0.553951 0.561698 0.569445 0.577192 0.58494 0
0.00125903 0.00251874 0.00377913 0.00504094 0.0063044 0.00823308 0.0101647 0.0120993 0.0140412 0.0159973
0.0169702 0.0179472 0.0189283 0.0199135 0.0209031 0.0218976 0.0229027 0.0239194 0.0249479 0.0259894
0.0265185 0.0270503 0.027588 0.0281323 0.028686 0.029249 0.0298196 0.0303998 0.0309925 0.0316148
0.0319309 0.0322478 0.032565 0.0328822 0.033212 0.0334501 0.0336868 0.0339216 0.0341503 0.034247
0.0343506 0.0344531 0.0345545 0.0346548 0.0347577 0.0349591 0.0351536 0.0353416 0.0355235 0.0356783
0.0357562 0.0358339 0.0359108 0.035987 0.0360654 0.0360667 0.0360681 0.0360695 0.0360708 0.0360722
0.0362164 0.0363594 0.036501 0.0366412 0.0368465 0.0369225 0.0369984 0.0370742 0.0371498 0.0372216
0.0376802 0.0381438 0.0386207 0.0391055 0.0395201 0.0399823 0.0404337 0.0408838 0.0413361 0.0417962
0.0422722 0.0427386 0.0432017 0.0436671 0.0441419 0.0446342 0.045117 0.0455945 0.0460774 0.046574
0.0476072 0.0486625 0.0497293 0.0508153 0.051608 0.0516739 0.0517397 0.0518055 0.0518713 0.051937
0.0530642 0.0542166 0.0553971 0.0566009 0.0578246 0.0590979 0.0603475 0.061577 0.062823 0.0640627
0.064686 0.0652991 0.0659095 0.0665185 0.0671303 0.0677564 0.0683725 0.0689797 0.0695882 0.0702027
0.0714531 0.0727135 0.073971 0.0752236 0.0764657 0.0772443 0.0780153 0.0787876 0.0795617 0.080429
0.0808885 0.0813483 0.0818084 0.0822695 0.0827315 0.0852432 0.0877396 0.090221 0.0926438 0.0950371
0.0997989 0.104511 0.109113 0.113602 0.117948 0.125041 0.13204 0.138915 0.145669 0.15919
0.163539 0.167887 0.172233 0.176579 0.181027 0.184408 0.187788 0.191168 0.194548 0.197928
0.205667 0.213409 0.221151 0.228893 0.236634 0.244362 0.252101 0.259841 0.267581 0.275321
0.283041 0.290779 0.298519 0.306258 0.313997 0.32171 0.329448 0.337186 0.344924 0.352663
0.360369 0.368107 0.375844 0.383582 0.391319 0.39902 0.406756 0.414493 0.422229 0.429966
0.437661 0.445396 0.453132 0.460867 0.468603 0.476292 0.484026 0.49176 0.499494 0.507228
0.514913 0.522646 0.530378 0.538111 0.545843 0.553522 0.561252 0.568982 0.576712 0.584443
0 0.00127992 0.00256048 0.0038423 0.00512559 0.00641038 0.00831681 0.0102258 0.0121375 0.0140557
0.0159859 0.016958 0.0179331 0.0189115 0.0198934 0.0208788 0.021873 0.0228762 0.0238893 0.0249123
0.0259475 0.0263902 0.0268346 0.0272824 0.0277336 0.0278571 0.028006 0.028155 0.0283041 0.0284534
0.0286029 0.0291463 0.029694 0.0302489 0.0308126 0.0313972 0.0314724 0.0315476 0.0316227 0.0316978
0.0317631 0.0319802 0.0321973 0.0324143 0.0326311 0.0328514 0.0329314 0.0330113 0.0330912 0.0331708
0.0332398 0.0334507 0.0336607 0.0338697 0.0340753 0.0342874 0.0343498 0.0344119 0.0344735 0.0345346
0.0345877 0.034593 0.0345984 0.0346037 0.034609 0.0346143 0.0348295 0.0350402 0.0352465 0.0354453
0.0356356 0.0356574 0.0356792 0.0357008 0.0357225 0.0357446 0.0358464 0.0359472 0.036047 0.0361481
0.0362926 0.0363863 0.0364794 0.0365718 0.0366633 0.0367524 0.0368563 0.0369594 0.037062 0.0371648
0.0373128 0.037412 0.0375109 0.0376099 0.0377097 0.0378071 0.038019 0.038229 0.0384384 0.0386471
0.0388592 0.0390791 0.0392946 0.0395057 0.0397169 0.0399308 0.0401469 0.0403613 0.0405748 0.0407889
0.0410054 0.0412263 0.0414438 0.0416601 0.0418767 0.0420942 0.042313 0.0425303 0.0427474 0.042965
0.0431838 0.0436288 0.0440742 0.0445228 0.0449748 0.0454349 0.0459136 0.0463802 0.0468389 0.0473006
0.0477759 0.0482586 0.0487393 0.0492199 0.0497044 0.0501968 0.0512137 0.0522361 0.0532701 0.0543573
0.0554624 0.0558266 0.0561912 0.0565569 0.0569243 0.0573123 0.0581036 0.0588944 0.0596848 0.0604791
0.0612814 0.0624815 0.0636567 0.0648382 0.066035 0.0672277 0.0684549 0.0696578 0.0708378 0.0720115
0.0731774 0.0736483 0.0741184 0.0745889 0.0750599 0.0755217 0.0758507 0.0761798 0.0765092 0.0768387
0.0771774 0.0775503 0.0779234 0.0782968 0.0786704 0.079044 0.0813899 0.0837376 0.0860849 0.088402
0.0906909 0.0951997 0.0997608 0.104231 0.108556 0.112773 0.121081 0.129359 0.137576 0.145621
0.153496 0.161238 0.168979 0.176716 0.18445 0.192182 0.199909 0.207636 0.215362 0.223085
0.230807 0.238065 0.245323 0.25258 0.259836 0.267108 0.267565 0.268022 0.268479 0.268936
0.269393 0.277107 0.284821 0.292535 0.300249 0.307963 0.31567 0.323383 0.331097 0.338811
0.346525 0.354225 0.361939 0.369652 0.377366 0.385079 0.392774 0.400487 0.4082 0.415913
0.423626 0.431315 0.439027 0.446739 0.454451 0.462164 0.469848 0.477559 0.48527 0.492982
0.500693 0.508373 0.516083 0.523793 0.531503 0.539213 0.546887 0.554595 0.562304 0.570012
0.577721 0 0.00127753 0.00255577 0.00383512 0.00511576 0.00639768 0.00829926 0.0102028 0.0121092
0.0140204 0.0159397 0.0169038 0.0178699 0.0188378 0.0198081 0.0207805 0.0217543 0.0227331 0.0237171
0.0247058 0.0256982 0.0266889 0.027686 0.0286914 0.029692 0.0307005 0.0307758 0.0308511 0.0309263
0.0310014 0.0310708 0.0319931 0.0328958 0.0337782 0.0346393 0.0354979 0.0359459 0.0363916 0.0368352
0.0372778 0.0377149 0.0381535 0.0385896 0.0390249 0.0394595 0.0398883 0.0403214 0.0407547 0.0411882
0.0416221 0.0420565 0.0424928 0.0429279 0.0433638 0.0438008 0.0442396 0.0451178 0.0460044 0.0468976
0.0477984 0.048724 0.0496711 0.0506106 0.0515434 0.052483 0.0534322 0.0541687 0.0549106 0.0556549
0.0564009 0.0575504 0.0576978 0.0578452 0.0579927 0.0581403 0.058288 0.0592719 0.0602555 0.0612393
0.062223 0.0632053 0.0652057 0.0671929 0.0691695 0.0711556 0.0731396 0.0750983 0.0770836 0.0790835
0.0810874 0.083093 0.0871055 0.0911354 0.0951336 0.0990864 0.103033 0.105942 0.108856 0.111778
0.114692 0.118133 0.123041 0.127922 0.132776 0.137604 0.142405 0.150115 0.157828 0.165538
0.173245 0.180951 0.188644 0.196345 0.204044 0.211742 0.219439 0.227125 0.234818 0.242511
0.250202 0.257892 0.265574 0.273262 0.280949 0.288635 0.29632 0.303999 0.311681 0.319363
0.327045 0.334725 0.342401 0.350079 0.357757 0.365434 0.37311 0.380782 0.388457 0.39613
0.403803 0.411476 0.419145 0.426815 0.434485 0.442155 0.449823 0.457489 0.465156 0.472823
0.480489 0.488154 0.495817 0.503481 0.511144 0.518807 0.526468 0.534128 0.541788 0.549448
0.557107 0.564767 0 0.00127409 0.0025488 0.00382396 0.00510035 0.00637797 0.00827387 0.0101719
0.0120722 0.0139756 0.015883 0.0177923 0.0197069 0.0216263 0.0235504 0.0254825 0.0264534 0.0274212
0.0283842 0.0293422 0.0299603 0.0309786 0.0319892 0.0329894 0.0339794 0.0349576 0.0358666 0.0367723
0.0376738 0.0385724 0.039462 0.0403527 0.0412418 0.0421299 0.043017 0.0439033 0.0456805 0.0474751
0.0492841 0.0511028 0.052938 0.0538093 0.0546819 0.0555566 0.0564334 0.0577989 0.0586791 0.0595611
0.0604448 0.0613303 0.0622173 0.0640929 0.0659714 0.0678527 0.0697366 0.0716225 0.073518 0.0754058
0.0772945 0.0791847 0.0810758 0.084872 0.0886672 0.092467 0.0962713 0.10009 0.107788 0.11549
0.123147 0.130766 0.138401 0.14605 0.153696 0.161341 0.168984 0.176626 0.184272 0.191914
0.199555 0.207195 0.214833 0.222474 0.230112 0.237749 0.245386 0.253021 0.260659 0.268294
0.275929 0.283563 0.291195 0.298831 0.306464 0.314096 0.321728 0.329359 0.336992 0.344623
0.352253 0.359882 0.367511 0.375142 0.382771 0.390399 0.398026 0.405652 0.413281 0.420908
0.428534 0.436159 0.443784 0.451411 0.459036 0.46666 0.474283 0.481906 0.489531 0.497154
0.504776 0.512397 0.520018 0.52764 0.535261 0.542881 0.550501 0.55812 0 0.00127142
0.00254321 0.00381554 0.00508846 0.00636199 0.0101414 0.0139323 0.0177224 0.0215092 0.0252998 0.0257902
0.0262795 0.0267679 0.0272554 0.0276844 0.0290744 0.0304592 0.0318388 0.0332133 0.0345853 0.0364264
0.0382581 0.0400729 0.0418836 0.0436892 0.0455005 0.0473091 0.0491191 0.0509378 0.0527678 0.054604
0.0564417 0.0582821 0.0601255 0.0619714 0.0656735 0.0693896 0.0731215 0.0768685 0.0806192 0.0843897
0.0881583 0.0919271 0.095698 0.0994713 0.107001 0.11453 0.122063 0.129611 0.137174 0.144753
0.152328 0.159905 0.167483 0.175059 0.18264 0.190217 0.197795 0.205372 0.212947 0.220527