# vtk DataFile Version 2.0
sampleSurface
ASCII
DATASET POLYDATA
POINTS 2021 float
-0.500032 0 0.11501 -0.499951 3.38813e-21 0.0392727 -0.789037 8.47033e-21 0.120673 -0.500013 -1.35525e-20
0.193965 1.00003 0 0.0485099 1.00003 0 0.0478584 0.475202 0 0.0353615
0.250044 1.41878e-20 0.0305359 0.2506 -5.42101e-20 0.117067 0.251301 0 0.203885 0.364989
0 0.203772 1.75002 0 0.113255 1.75002 0 0.0564279 2.50001 6.89146e-18
0.059229 2.21354 0 0.250758 2.50001 0 0.252875 3.25001 -3.47927e-17 0.0598775
3.25001 -1.69407e-21 0.253888 4.00001 5.60566e-18 0.0599857 4 0 0.253986 4.75
-1.79088e-17 0.0599988 4.75 8.47033e-22 0.253998 5.5 -2.79246e-17 0.0599999 5.5 -4.23516e-22
0.253999 6.25 1.01187e-17 0.06 6.25 0 0.254 7 2.93732e-17 0.06
7 0 0.254 7.75 -2.65294e-17 0.06 7.75 0 0.254 8.5
1.8923e-17 0.06 8.5 0 0.254 9.25 -2.88552e-17 0.06 9.25 -5.29396e-23
0.254 10 -2.64698e-23 0.254 10 0 0.06 -4.24997 0 0.0599042
-5 0 0.0599861 -5 0 0.253986 -4.24997 0 0.253912 -3.49995
0 0.0593815 -3.49994 0 0.253441 -2.74993 0 0.0570188 -2.74991 0
0.251316 -1.99991 0 0.0492276 -1.99987 0 0.242776 -1.24992 -1.69407e-21 0.03
-1.24985 1.23328e-17 0.222327 -1.24989 3.38813e-21 0.125756 -0.874924 2.08116e-17 0.03 -0.874929
0 0.122356 -0.124951 -8.47033e-22 0.03 -0.499941 0 0.03 -0.124922 -8.47033e-22
0.0385291 1.00021 0 0.231242 0.625368 0 0.203537 0.25004 -2.11758e-22 0.03
1.75003 0 0.247334 1.92873 1.69407e-21 0.441438 2.50001 0 0.447397 3.25
-1.69407e-21 0.447898 4 0 0.447986 4.75 0 0.447997 5.5 -4.23516e-22
0.447999 6.25 4.23516e-22 0.447999 7 0 0.448 7.75 -1.05879e-22 0.448
8.5 0 0.448 9.25 0 0.448 10 -2.64698e-23 0.448 -5
-8.47033e-22 0.447985 -4.24997 0 0.447919 -3.49993 0 0.4475 -2.74988 0
0.445609 -1.9998 6.77626e-21 0.437758 -1.24969 1.61411e-17 0.417681 -1.24976 -6.77626e-21 0.31973
-0.875161 7.70461e-18 0.216228 -0.875403 0 0.312476 -0.499924 -8.74138e-19 0.250039 -0.312433
0 0.250037 -0.312436 0 0.200025 -0.499924 0 0.200026 0.250062 3.38813e-21
0.24921 0.250039 -1.69407e-21 0.250046 0.250032 0 0.300069 0.437526 3.05948e-18 0.300066
0.625026 0 0.30005 1.00072 -8.23994e-18 0.326497 1.00196 0 0.423 1.75013
0 0.439575 1.75013 1.77877e-20 0.448245 1.00135 0 0.537141 1.00002 0
0.61834 1.74999 2.71051e-20 0.633055 2.49999 -3.38813e-21 0.641448 3.25 0 0.641907
4 -1.69407e-21 0.641985 4.75 -8.47033e-22 0.641996 5.5 -4.23516e-22 0.641998 6.25
0 0.641999 7 0 0.641999 7.75 0 0.642 8.5 5.29396e-23
0.642 9.25 -5.29396e-23 0.642 10 0 0.642 -5 0 0.641985
-4.24997 -1.69407e-21 0.641926 -3.49993 0 0.641557 -2.74988 0 0.639897 -1.99989
6.77626e-21 0.63382 -1.25099 2.55465e-18 0.614606 -1.25 -2.71051e-20 0.515981 -0.878244 0
0.50789 -0.875961 2.71051e-20 0.459694 -0.875609 0 0.410432 -0.498432 0 0.400603
-0.498071 -1.70762e-18 0.413126 -0.450805 0 0.413349 -0.45095 0 0.400955 0.250009
1.89735e-19 0.412703 0.25 2.71051e-20 0.425212 0.296872 1.00289e-18 0.425187 0.343754 -2.71051e-20
0.425153 0.343763 0 0.400146 0.250006 0 0.400175 1.00162 1.41488e-17 0.520353
-2 4.23516e-22 0.820145 -2.09502 -2.11758e-22 0.830091 -2 0 0.829497 -1.25123
0 0.813251 -1.25126 0 0.713737 -1.25101 6.77626e-21 0.62198 1.00059 0
0.714169 1.00094 0 0.809205 1.75018 0 0.82775 2.5 0 0.835521
3.25 0 0.835917 4 -1.69407e-21 0.835986 4.75 -8.47033e-22 0.835996 5.5
0 0.835998 6.25 0 0.835999 7 0 0.835999 7.75 0
0.836 8.5 0 0.836 9.25 0 0.836 10 0 0.836
-5 -8.47033e-22 0.835986 -4.24997 0 0.835935 -3.49995 0 0.835616 -2.74991
0 0.83419 -0.970118 0 0.703382 -0.87455 0 0.699864 -0.874264 -2.71051e-20
0.649852 -0.874033 -2.71051e-20 0.599873 -0.49698 0 0.599585 -0.497345 -9.21572e-19 0.612046
-0.450014 0 0.611892 -0.44938 2.71051e-20 0.599454 -2.00002 0 0.84097 -1.84639
-3.38813e-21 1.02215 -1.25185 0 1.01276 -0.896512 -3.38813e-21 0.900668 -0.908183 6.77626e-21
0.801076 -0.904022 -1.86347e-20 1.00093 0.624925 0 0.799916 0.249931 0 0.799891
0.249978 0 0.899916 0.249997 0 0.999939 0.999987 0 0.999957 1.75061
-2.1684e-19 1.02409 2.50003 0 1.0296 3.25 -1.69407e-21 1.02993 4 0
1.02999 4.75 0 1.03 5.5 0 1.03 6.25 2.11758e-22 1.03
7 0 1.03 7.75 0 1.03 8.5 5.29396e-23 1.03 9.25
0 1.03 10 0 1.03 -5 0 1.02999 -4.24998 0
1.02994 -3.49996 -8.47033e-22 1.02968 -2.74996 0 1.02849 -2.00026 0 1.02458
-0.87482 0 0.799893 -0.87491 0 0.899919 -0.49993 0 0.799862 -0.499958
7.6233e-19 0.849889 -0.312476 0 0.849885 -0.312472 0 0.799853 -1.25001 8.04681e-21
1.19601 -0.499979 5.29396e-23 1.10737 -0.731886 2.11758e-22 1.19997 -0.499981 0 1.19997
-0.124987 0 0.999933 -0.477759 -5.29396e-23 0.999933 -0.487556 -1.45584e-22 1.09995 0.250008
0 1.19997 1 0 1.19997 1.7507 0 1.22203 2.50003 -1.35525e-20
1.22368 3.25 0 1.22394 4 0 1.22399 4.75 4.23516e-22 1.224
5.5 0 1.224 6.25 2.11758e-22 1.224 7 0 1.224 7.75
1.05879e-22 1.224 8.5 0 1.224 9.25 0 1.224 10 2.64698e-23
1.224 -5 4.23516e-22 1.22399 -4.24999 -4.23516e-22 1.22395 -3.49998 0 1.22374
-2.75001 0 1.22279 -2.00077 0 1.21965 -1.24997 4.23516e-22 1.19997 -0.499969
-5.29396e-23 0.999933 -0.874942 0 0.999936 -0.499979 -1.32349e-23 1.09995 -2.75001 0
1.36967 -3.18711 4.23516e-22 1.41751 -2.75001 4.23516e-22 1.4171 -2.00072 3.38813e-21 1.29692
-2.00065 0 1.41474 -1.25823 6.35275e-21 1.40014 -0.980416 0 1.39998 -0.499986
0 1.39998 0.250009 0 1.39998 1 0 1.39998 1.75054 0
1.41682 2.50002 -1.35525e-20 1.41776 3.25 0 1.41796 4 4.23516e-22 1.41799
4.75 0 1.418 5.5 0 1.418 6.25 0 1.418 7
0 1.418 7.75 0 1.418 8.5 0 1.418 9.25 0
1.418 10 0 1.418 -5 0 1.41799 -4.24999 0 1.41797
-3.49999 -4.23516e-22 1.41781 -1.24998 0 1.39998 -2.80392 1.32349e-23 1.61143 -2.75
-1.32349e-23 1.6114 -2.0003 0 1.60983 -1.25396 2.64698e-23 1.60004 -1.12789 2.64698e-23
1.59999 -0.49999 1.05879e-22 1.59999 0.250008 0 1.59999 1.00001 4.23516e-22 1.59999
1.75038 0 1.61122 2.50002 0 1.61184 3.25 -4.23516e-22 1.61197 4
-4.23516e-22 1.61199 4.75 0 1.612 5.5 0 1.612 6.25 0
1.612 7 0 1.612 7.75 5.29396e-23 1.612 8.5 2.64698e-23 1.612
9.25 -1.32349e-23 1.612 10 -1.32349e-23 1.612 -5 0 1.61199 -4.24999
0 1.61198 -3.49999 0 1.61187 -1.24999 0 1.59999 -2.75 -1.32349e-23
1.63714 -2.64195 -2.11758e-22 1.80559 -2.00012 -8.47033e-22 1.80492 -1.25741 0 1.80004
-1.19082 -7.94093e-23 1.8 -0.499992 1.05879e-22 1.79999 0.250006 2.11758e-22 1.79999 1
0 1.8 1.75023 0 1.80561 2.50001 3.38813e-21 1.80592 3.25 0
1.80599 4 0 1.806 4.75 2.11758e-22 1.806 5.5 0 1.806
6.25 0 1.806 7 0 1.806 7.75 0 1.806 8.5
2.64698e-23 1.806 9.25 0 1.806 10 0 1.806 -5 0
1.806 -4.25 -2.11758e-22 1.80599 -3.49999 0 1.80594 -2.75 -1.05879e-22 1.8057
-1.24999 0 1.8 -2 -4.76456e-22 1.98532 -1.20969 -1.65436e-23 2 -0.499993
0 2 0.250006 0 2 1 0 2 1.75 0
2 2.5 0 2 3.25 0 2 4 0 2
4.75 -1.05879e-22 2 5.5 0 2 6.25 0 2 7
5.29396e-23 2 7.75 0 2 8.5 0 2 9.25 0
2 10 -1.32349e-23 2 -5 2.21817e-18 2 -4.25 1.05879e-22 2
-3.49999 0 2 -2.74999 0 2 -1.99999 -5.29396e-23 2 -1.24999
3.30872e-24 2 0.0956945 -5.42101e-20 0.203879 0.0632748 0 0.203876 0.0625511 0
0.250042 -0.403589 6.77626e-21 0.40138 -0.405779 7.7927e-19 0.38799 -0.406379 -6.77626e-21 0.375196
-0.499567 -1.35525e-20 0.375265 0.250006 -6.50521e-19 0.375144 0.156247 0 0.375155 0.156237
9.41901e-19 0.400212 0.203129 0 0.400201 0.249796 0 0.59991 0.249852 -1.0842e-19
0.587433 0.202953 0 0.587417 0.202888 6.50521e-19 0.599901 0.625121 -6.77626e-21 0.499953
0.717439 6.77626e-21 0.504955 0.625095 6.77626e-21 0.475379 0.343596 1.0842e-19 0.599918 0.343639
0 0.574939 0.296781 0 0.574964 0.249926 0 0.574977 0.62499 -4.2826e-18
0.549927 0.624917 4.55365e-18 0.599925 0.203133 0 0.412725 -0.449046 0 0.587135
-0.496581 5.42101e-20 0.587161 0.625036 -9.32414e-18 0.40006 0.625067 1.13164e-18 0.450032 0.249704
0 0.624881 0.155871 0 0.599866 0.155839 1.95156e-18 0.624853 0.249886 1.35525e-20
0.749873 0.062411 0 0.749846 0.0624478 -4.26227e-18 0.799869 -0.312472 0 0.749804
-0.499901 -3.38813e-21 0.749824 -0.691227 0 0.30453 -0.499912 3.02221e-18 0.300065 -0.875784
-3.11708e-18 0.361353 -0.592465 -2.71051e-20 0.40036 -0.499854 0 0.350135 -0.687111 1.35525e-20
0.350117 -0.68656 -2.71051e-20 0.40021 0.437526 -1.35525e-20 0.400108 0.437522 6.77626e-21 0.350086
0.250015 -2.51399e-18 0.35011 0.625027 3.38813e-21 0.350064 -0.592287 0 0.425286 -0.498048
0 0.425444 -0.873902 5.42101e-18 0.54992 -0.496663 0 0.574746 -0.591532 0
0.574798 -0.591729 0 0.599734 -0.149108 0 0.406489 -0.149477 -5.29396e-23 0.403592
-0.149678 0 0.406489 -0.451876 -2.1684e-18 0.499977 -0.451579 0 0.487563 -0.498366
0 0.487552 -0.498515 -1.0842e-19 0.499993 0.437553 0 0.450075 0.437532 -6.07153e-18
0.425113 0.254621 -1.25361e-19 0.496697 0.26485 -5.42101e-20 0.498023 0.264831 0 0.496529
0.254636 -2.30393e-19 0.49668 0.570241 0 0.499932 0.437665 -2.71051e-20 0.474991 0.437859
-2.71051e-20 0.49988 0.437372 -1.0842e-19 0.599915 0.249722 3.25261e-19 0.649874 0.43732 -5.42101e-20
0.649899 0.624872 0 0.649914 0.624883 -3.95734e-18 0.699913 0.43734 6.83047e-18 0.699894
0.249817 0 0.699869 -0.592227 0 0.624743 -0.498071 -2.71051e-20 0.624658 -0.499769
6.77626e-21 0.69979 -0.687025 0 0.699824 -0.150854 -1.03677e-18 0.599678 -0.151059 -6.77626e-21
0.605522 -0.127339 6.77626e-21 0.605681 -0.127867 0 0.599582 -0.406139 -4.40457e-20 0.699754
-0.406113 0 0.674749 -0.499634 0 0.674774 -0.18433 -4.23516e-22 0.674527 -0.163626
-4.23516e-22 0.678958 -0.165125 0 0.674537 -0.171868 4.23516e-22 0.674524 -0.14924 3.34737e-19
0.400169 -0.125737 0 0.400165 -0.12551 0 0.393854 -0.149076 -2.11758e-22 0.393877
-0.499925 -2.61564e-18 0.325088 -0.406241 0 0.325087 -0.4062 0 0.300069 -0.124901
0 0.300062 -0.218633 -3.27294e-18 0.299673 -0.218596 1.35525e-20 0.324664 -0.124851 0
0.325085 -0.126061 7.86047e-19 0.406473 -0.0785222 1.30782e-18 0.400166 -0.126118 3.38813e-21 0.41275
-0.0785648 0 0.412729 0.240678 1.0842e-18 0.500153 0.252614 -2.1684e-19 0.498317 0.252386
1.0842e-19 0.496231 0.241035 0 0.496114 0.228892 -1.35525e-20 0.496204 0.228835 6.77626e-21
0.498715 0.229819 2.71051e-20 0.500074 0.25248 0 0.499935 0.240657 -1.6263e-19 0.500957
0.264863 0 0.500154 0.264689 0 0.500951 0.437443 0 0.549896 0.437406
[...]
POINT_DATA 2021
FIELD attributes 2
p 1 2021 float
2.01214 1.44038 2.37206 4.36557 0.058601 0.056488 -4.20516 -6.04371 -7.69258 -6.16688 -4.32225
0.496013 0.463888 0.111563 0.326376 0.174692 0.00318823 0.0270085 0.00521482 0.0141556 0.00928381
0.0152859 0.00453824 0.00967716 -2.0424e-05 0.00434656 -0.0015014 0.00222824 -0.00111342 0.00209765 -0.000483879
0.00213274 0.000544922 0.00333512 0 0 0.615171 0.610716 0.610564 0.614885 0.636054
0.635157 0.706023 0.70289 0.928109 0.924813 1.64244 1.76397 1.77941 2.23804 2.47884
-4.05582 1.37032 -4.10861 0.650343 -0.111278 -6.03348 0.571785 0.441713 0.189289 0.0288906
0.00693867 0.00907968 0.00529093 0.000838744 -0.000714697 -0.00031229 -0.000411269 0.00265842 0 0.610131
0.614115 0.632742 0.693851 0.903684 1.95783 2.03063 3.1303 3.87468 7.32678 -3.29731
-1.04872 4.58556 -5.73139 -5.72352 -2.26349 0.33821 0.825975 1.02951 0.924626 0.520619
0.516417 0.846803 0.88017 0.426697 0.166737 0.022606 0.00190158 0.0061158 0.00403022 0.000211318
-0.0010797 -0.000482261 -0.000298177 0.00283375 0 0.60944 0.612924 0.629104 0.681157 0.863214
1.85153 2.13748 5.13614 5.59042 4.82785 32.5779 36.463 52.0325 45.9881 4.75071
4.89598 3.38127 3.41608 2.68108 4.08513 0.839904 0.809144 0.788671 0.806429 1.39771
1.7868 1.84674 0.991623 0.482037 0.349347 0.12741 0.0133655 0.000258481 0.00672589 0.00596197
0.00245835 0.00109999 0.00145713 0.00205799 0.00348938 0 0.608564 0.611443 0.62467 0.666273
3.25313 3.75159 4.68384 4.76197 34.3601 32.6984 44.6221 50.7634 0.802596 0.782286
0.940764 1.70337 2.62802 1.14293 0.0800063 -4.87845 -5.30058 -2.74831 -0.228504 0.190927
0.0731709 -0.00562619 -0.0110378 -0.00109566 0.000753352 -0.00127594 -0.00176845 -0.000840109 0.000298895 0.00127608
0 0.607594 0.609819 0.61984 0.650287 0.741249 2.74758 1.73313 5.18829 3.29274
0.556657 -0.67779 0.698804 0.311639 0.31355 0.143444 -1.70943 0.673758 0.28212 -0.974153
-0.393851 0.0978648 0.0646846 -0.0030448 -0.0110356 -0.00118492 0.00134458 -0.000436551 -0.000921914 -2.63775e-05
0.00105509 0.00156474 0 0.606628 0.608208 0.614991 0.634156 0.677756 0.693567 0.823806
1.15982 0.32512 0.622925 0.61421 0.619299 0.657496 0.626596 0.567553 0.384765 0.0601626
-0.564281 -0.377659 0.0461479 0.0592071 -0.00446046 -0.0152552 -0.00450205 -0.000855467 -0.00214857 -0.00239027
-0.00132891 -0.000131581 0.000448933 0 0.605765 0.606752 0.610567 0.566897 0.607523 0.607562
0.591511 0.496399 0.427832 0.0778387 -0.435219 -0.34879 -0.00101912 0.0479797 -0.00800798 -0.018891
-0.0065704 -0.00183524 -0.00273403 -0.00279608 -0.00163767 -0.000377505 0.000271393 0 0.605086 0.605579
0.607023 0.495892 0.606583 0.595996 0.571189 0.458744 0.428395 0.0871858 -0.364942 -0.332861
-0.027525 0.0428984 -0.00840349 -0.0199667 -0.00731494 -0.00224496 -0.00305007 -0.00304979 -0.00184565 -0.000560484
0.000133613 0 0.604647 0.604797 0.60468 0.600172 0.457621 0.564918 0.426245 0.0902856
-0.342565 -0.327713 -0.035815 0.0413696 -0.00849803 -0.0203824 -0.00767174 -0.00247273 -0.00320899 -0.00314715
-0.00190081 -0.000596379 0.000118882 7.89543e-05 0.604493 0.604515 0.603837 0.597652 0.564408 0.445323
-10.2869 -11.1448 -11.7953 70.483 60.0646 43.8782 29.6757 2.9332 1.70664 4.41009
5.06227 4.14344 4.55599 6.19359 5.41279 2.01987 1.73041 2.13499 2.95536 3.66114
3.35645 3.96695 2.23882 1.90612 6.03836 56.2523 39.4475 1.9293 2.2534 3.65146
4.75969 2.18163 -4.52411 -11.201 -9.84195 -3.19552 8.46334 7.007 11.9066 4.75141
17.4676 20.8225 9.13979 10.5199 2.573 1.49613 0.998644 1.65225 19.7344 36.9202
5.61419 39.6478 20.332 18.8221 -58.8381 -58.6212 -58.835 68.4689 68.382 47.5679
44.8019 3.39213 3.09594 -5.05819 0.31093 0.160631 -5.108 2.58065 3.96377 3.92966
2.8499 1.83935 1.75301 1.61993 0.946167 0.757025 -1.35584 17.0076 28.1071 13.2957
7.27814 -56.5874 -56.3761 -58.8171 -58.7407 13.8737 19.1098 18.4845 -46.3151 -42.7533
-44.4327 -45.1706 -58.3687 -57.6368 -57.6252 -57.7777 16.6144 15.888 12.0076 -29.3709
-27.9742 -45.3707 -37.071 -58.9638 -46.0692 -58.7797 -48.1749 11.0239 4.28776 10.5272
11.8825 9.12293 9.39775 9.6855 4.50829 11.1462 0.870312 0.699557 3.70823 3.46194
4.053 4.30835 47.7603 68.3508 -58.875 -56.5146 6.50003 11.1508 -51.43 -52.7399
-58.4716 4.44811 6.28964 6.44172 6.47221 -31.4379 -40.0451 -49.4783 -29.8155 64.4155
60.8 41.6627 41.4119 -44.1112 -56.1274 -11.5296 -8.58543 -0.439682 -24.5416 -42.4565
42.9879 44.3141 64.3114 66.4832 -51.7749 -49.9281 -50.7101 0.336287 -9.65214 -12.6971
-11.6819 -21.6648 -24.853 -57.8679 44.0466 21.8567 22.1503 11.7052 12.0221 12.1953
13.1465 22.027 44.5101 10.7995 12.4628 11.9033 13.2436 -58.7317 -58.7202 -58.1856
-58.1728 -57.5404 -56.9203 -56.5599 45.8261 66.838 -58.3895 -58.6337 -59.0364 -58.2973
-29.8482 -35.0639 -32.7565 -13.7237 -1.58746 -4.90378 -50.6122 -50.2678 -58.0664 -13.1248
0.131848 0.0570522 -13.3518 -58.342 -56.8501 -51.3135 -12.4752 -10.2133 -3.71092 1.54908
-7.34288 -5.57201 -18.6085 -38.3577 -41.4497 -36.3352 -52.2479 -53.2656 -53.0027 -4.09354
-17.5136 -18.2587 -4.7067 -56.1097 -51.9943 -56.133 -3.53217 -9.25077 -16.5582 -11.6391
67.5362 46.8739 -54.2734 -54.4353 -56.8459 -56.7295 -56.2476 -53.7586 -57.1364 -53.1925
-56.0117 -59.0153 -59.1475 -59.1893 -32.1691 -77.1299 -96.1739 -101.135 -103.404 -102.967
-48.678 -50.1888 -54.2418 -48.2584 -49.9254 -98.1425 -99.4624 -71.2922 -34.3151 -58.5158
-59.3385 -59.0233 -56.3215 -57.2086 -57.2989 -57.2212 -57.6234 7.11376 6.03264 8.92311
-56.0756 -55.7725 -55.9889 -55.4791 -55.5978 -55.8874 -56.2948 -55.1665 -55.1512 2.0155
1.80765 0.685317 1.18904 4.22396 4.59559 1.3609 -55.8942 -56.3522 -56.9959 5.78676
6.62554 2.78212 0.876222 3.13096 -32.0938 -38.1071 -37.3745 -31.7161 -54.5963 -55.086
-57.9969 -57.6839 -55.0061 -55.838 -38.9485 -43.3036 -43.1097 -36.9605 -46.1042 -50.1549
-53.2947 -53.4433 -52.2777 123.58 131.437 146.782 146.871 -58.1797 -56.2543 -56.5255
-57.8782 -57.7296 4.41879 2.14568 3.02717 4.614 -9.72966 -3.90883 -5.85713 -8.89531
-11.7789 -39.0863 -36.8916 -25.5899 -27.3175 -32.1331 -39.1056 -24.9048 -24.9145 31.095
41.2723 52.1162 37.9279 23.0732 19.2287 34.2269 26.1264 0.669444 0.827648 1.9875
34.0707 24.9026 17.0892 22.1636 2.8672 3.80798 4.45898 4.56981 3.72113 6.67339
6.78224 4.62338 -9.36666 -8.25496 -1.38042 -10.2439 14.6885 9.1486 10.8241 -54.6866
-56.9101 -57.041 -54.8812 -82.7231 -81.4416 -84.683 -47.9503 -12.7066 -18.3497 -27.6252
-56.0692 -52.8703 -55.4138 -56.5204 -74.1285 -73.885 -58.5367 -59.7562 -49.5719 -47.9736
-50.2235 -50.4174 3.73259 3.79158 -0.64231 5.98799 5.64033 4.64894 5.32134 5.72668
6.13252 -54.1338 -53.6997 -68.8283 -68.0388 79.0085 94.1031 85.6996 112.114 106.423
88.8452 90.1612 161.856 164.187 153.366 121.636 98.4162 104.356 97.312 117.65
-12.8947 -26.9641 -31.2999 -5.85265 -26.1444 -52.1109 -41.7526 -6.32703 93.7159 101.216
86.801 78.2687 96.6986 88.3937 107.602 148.459 158.213 167.404 165.142 106.627
102.902 159.629 -32.6047 -7.96284 -38.2943 -28.4985 -47.6911 140.212 140.082 115.606
110.586 110.249 115.512 139.607 138.99 108.138 167.236 170.842 172.012 172.303
173.713 186.65 186.839 174.82 173.272 -32.9878 -40.1126 -32.9419 -56.4744 -50.8427
-42.6836 -41.9389 -40.6731 -25.5702 2.75754 -2.60799 -0.671705 173.392 175.335 187.191
172.363 186.507 187.15 175.223 172.168 179.596 181.76 170.109 168.877 179.894
167.878 171.094 182.418 -52.651 -37.8466 -36.5964 -55.7677 -55.8003 -55.9054 -36.3894
-46.2472 -36.4856 -36.9493 -45.8522 -45.8204 -3.36316 -9.22797 -25.1184 -25.1556 -32.9195
-43.5613 -32.944 -32.6404 -42.9857 -21.2044 -18.9401 -20.6538 115.422 140.141 138.125
139.035 114.679 109.307 170.034 169.909 170.477 167.74 136.397 108.396 113.574
137.149 -57.2027 -54.2674 -52.9025 -52.7333 -55.7463 -46.15 90.1394 93.4039 78.6461
-14.983 -6.26083 -6.79644 -20.9116 54.5043 56.3649 69.9727 73.6329 -55.9638 -55.2073
-55.4973 -55.9508 -57.1064 -57.3467 -57.4784 -57.5927 -56.215 -56.322 -55.9232 -56.0204
-135.016 -109.422 -77.8699 -95.7237 -98.086 -99.2088 -99.2008 -83.312 -79.0434 -92.6389
-70.5332 -85.4939 -133.094 -136.69 -128.602 -96.2685 -97.0925 -54.8617 -54.3219 -55.0286
-56.1201 -56.4077 -53.9471 -53.8749 6.76005 7.27526 13.7166 16.3277 13.8109 -50.9766
-50.2608 -45.7898 -46.0117 -46.2395 -46.0398 -46.0132 -45.7969 12.9539 12.6838 16.9018
8.27132 8.07663 9.6404 10.124 10.1497 8.51652 7.33435 8.09339 12.4179 15.7471
13.7531 0.809837 -0.818057 -3.00901 7.04764 6.22655 5.10538 6.44395 7.15606 -52.4936
-53.3757 -56.3551 -55.6727 -48.6485 -49.6264 13.6045 15.5586 16.9508 -46.8937 -49.7728
-49.9053 -46.6118 -45.7788 11.3567 11.0977 11.1404 9.55432 6.84419 -7.05254 -5.80995
5.46817 6.30589 6.27666 -48.5245 -48.8636 146.492 148.516 140.932 136.973 113.354
118.315 125.724 121.196 184.612 185.887 182.189 178.431 -55.7758 -55.7085 -53.0941
-53.0032 169.639 183.359 185.058 172.996 174.453 186.573 171.03 182.144 169.626
179.278 -16.8839 -19.1696 -23.9219 -28.2063 -26.7976 -22.9197 -8.77264 -3.44826 -3.87133
-9.06043 -14.0867 -13.7383 -1.03303 -9.06654 -9.93635 -15.0209 -18.1542 -8.21968 -8.97481
-24.9624 -20.2324 -9.66157 -0.783329 -3.05369 6.05866 -3.47893 6.04138 6.80061 3.35592
3.88705 4.60821 4.1713 7.70654 6.08047 3.93109 5.78557 -18.92 -16.0072 -26.345
-21.4802 -56.5057 -58.2543 -58.8447 -58.6977 3.01151 3.0792 5.0254 5.50999 4.26602
4.86538 -14.558 -40.2994 -57.2409 -65.4541 -53.2503 -31.8949 -59.0146 10.7406 10.196
10.2191 -2.4966 0.165647 11.996 17.2785 9.52236 23.7457 20.6444 10.4529 1.63893
6.81097 8.31125 13.131 11.5605 6.79057 -53.4857 -44.0593 -49.9465 -13.1034 -43.9541
-25.0066 -60.6827 -83.8053 108.697 92.7373 106.213 108.377 112.757 111.889 172.887
172.01 173.262 172.577 171.28 185.967 185.968 185.203 -58.0457 -58.2653 174.485
-56.2543 -56.2525 -57.1825 -57.3498 -57.0508 -55.9456 -150.092 -136.946 -136.84 -133.627
-157.766 -136.752 -132.761 -133.073 -119.801 -115.134 -80.4252 -73.1822 -73.5608 -70.9237
-119.513 -121.283 -56.8322 -55.8194 -54.7241 -57.2001 9.46799 7.12286 10.667 8.21444
10.9881 12.011 12.3844 13.3295 14.1233 -55.3088 -54.3854 -56.3616 -55.1743 -53.2219
-52.9596 -53.0711 -55.0001 -6.00779 -0.492558 -1.43714 -4.62802 9.18262 9.5579 6.80042
5.83486 7.54379 9.53702 8.77597 6.6888 1.33577 8.17246 7.0731 6.91289 8.65934
10.3853 9.20042 12.0295 11.3145 -54.7663 -55.1855 -55.2492 -55.375 -55.5267 -55.3798
-54.8803 -52.8686 -54.1856 -54.1942 -54.2127 -51.1659 -52.5591 -73.8809 -73.0955 -57.712
-60.0147 -77.6897 -68.5259 -77.6345 -124.121 -128.723 -136.349 -79.6311 -97.6817 -107.534
-80.4935 -99.0293 128.762 113.598 148.529 151.753 -54.6792 -53.9025 -55.018 -55.0045
-53.2054 143.892 167.877 146.151 -49.0813 -48.2431 -48.6807 -49.4571 -49.2623 -49.2803
-49.207 -47.7209 -8.0565 -9.34659 -11.8909 -11.0006 -14.8446 -17.0261 -19.1731 -16.9537
-17.8824 74.8091 85.504 -58.593 51.2118 76.5255 64.9981 75.5669 61.0309 13.839
10.8937 45.5625 36.5588 8.34735 9.1835 3.62591 5.29483 5.10306 7.79662 6.71093
7.0798 7.46331 8.27155 -52.8507 -52.4062 -52.1274 -52.7158 -1.05698 -0.551148 -1.12882
2.2439 5.68834 5.12976 7.08396 6.51494 -51.0431 -51.4552 -51.182 138.206 136.285
171.193 184.784 189.089 189.376 186.867 185.343 -55.8294 -55.5342 -55.8579 -55.6828
-53.2319 -45.7182 -46.536 -47.1474 -46.3596 -46.6853 -47.9715 -56.158 -56.184 -56.7714
-57.3666 -57.0723 -57.0568 -57.2163 -56.8317 -55.1882 -115.904 -111.532 -135.165 -111.762
-134.349 -122.496 -123.959 -133.754 -56.2651 -57.5229 -55.9578 -54.6704 13.656 12.2954
11.2757 12.4424 12.6781 13.3157 -36.8411 -36.3414 -31.5578 -30.9991 -41.8189 -42.3647
-46.5356 -46.139 -51.1805 -51.2296 -45.6269 -52.2361 -51.8758 -6.21105 -0.958794 -11.4889
0.593702 2.03748 7.99031 7.52396 7.85265 4.24496 10.6789 7.32932 8.74731 10.2463
10.8919 10.7876 10.9281 12.6946 12.3654 2.31259 12.4365 14.8264 16.0038 3.89484
3.40278 3.14268 3.82349 -58.9878 -58.1322 -52.9617 -56.5771 -44.7103 -44.1749 -40.1334
-44.502 -45.919 -49.9734 -51.1923 -49.6174 -49.8405 -49.5988 -47.1767 -52.2795 -47.3131
4.20112 -48.3054 -49.5998 141.008 131.817 129.415 129.46 129.84 114.356 106.934
188.666 188.139 187.144 -50.7664 -51.0951 -1.39743 -0.832249 0.203579 -29.7096 -30.6114
186.058 186.894 180.371 183.33 181.875 181.505 -33.2272 -29.062 -3.15814 -7.81491
-5.93033 -3.2061 -24.8267 -13.6785 -10.2584 -13.4513 -19.897 -4.5817 80.8717 56.5203
60.8495 21.0713 21.437 68.0182 110.709 10.1506 7.19618 -2.27325 -2.52652 6.82585
7.62149 7.91133 6.09875 6.55354 24.5314 16.2909 -0.43263 19.7502 -1.80663 3.46186
8.15753 8.08019 68.022 110.21 -54.7869 -55.8827 18.1094 91.5236 109.013 100.378
92.4198 108.041 109.157 126.573 134.311 143.188 -55.8935 81.5494 73.5246 50.3492
12.5282 18.5839 16.7556 -75.5519 -56.9154 -56.9087 -56.912 -55.3551 -55.2883 -60.0168
-55.5156 -59.9345 -60.5491 23.4293 -6.50917 5.98292 10.5934 10.8295 -1.43569 -1.54279
-2.6638 -55.6545 -54.194 -1.03332 2.52448 2.83117 -57.571 -57.0114 -56.1552 7.94578
7.63886 4.10316 -56.6659 41.6394 49.6136 -66.7305 -59.0148 17.4174 14.9696 8.98782
6.90098 5.06205 8.51232 6.95433 -54.2125 -54.1733 -53.0025 -52.9295 -55.855 -52.2746
-51.8013 -54.576 -54.8639 -54.8601 -54.3679 -55.4169 -54.9993 -54.8644 -54.6231 4.47053
-51.7919 -57.8672 -56.8332 100.527 129.16 144.726 155.188 168.102 162.935 160.746
148.749 188.248 -52.8791 -53.8152 -51.9372 -7.4105 -10.4465 -3.27476 -49.7724 -49.8007
-49.7646 -50.0344 -53.218 -47.3422 -48.8498 -47.6216 -47.1493 -47.8483 28.8208 20.2497
-112.361 -119.97 -119.828 -120.465 -120.809 -74.0859 -96.6764 -74.0897 13.3473 16.9845
-10.9756 12.0716 11.5128 -5.47648 -7.05439 4.11687 2.50495 0.999212 0.647559 -0.625361
-2.23767 -0.983933 4.1556 4.52763 0.599156 2.84354 4.50059 2.41707 1.33348 13.2701
17.5816 -50.1441 5.4964 12.7655 8.4959 16.5032 8.451 11.179 14.2084 15.9842
4.80202 5.00167 6.48218 5.90694 -2.11316 -4.04208 -6.30545 -6.20696 4.86632 1.61394
4.34206 9.44385 15.3637 16.5695 8.2312 5.63647 2.99658 2.68601 7.16605 10.663
11.3222 11.968 11.1029 5.67591 -3.62273 5.54998 -2.85956 3.16199 -3.63177 2.40211
11.037 8.35931 12.4186 6.98614 9.50881 11.433 10.8191 10.5183 7.9499 8.66103
9.18562 9.43471 7.90604 7.36684 7.38988 6.01344 -5.51739 -9.03782 -7.25371 6.48626
5.89625 7.98394 6.24781 -9.26792 -11.0371 1.04284 7.04918 5.8609 -1.72939 5.6471
-137.137 -137.792 -138.038 10.2509 -55.6313 -54.5985 -54.6519 5.2309 9.91523 5.29975
8.38546 10.9822 -55.788 -55.7498 -55.1297 -54.8296 -61.0499 -60.5532 -61.0415 -69.09
-116.123 -119.961 -113.803 -120.677 -49.0276 -49.5551 -47.5329 -47.2348 -47.4929 -47.212
-14.6418 -14.6413 -17.0629 -52.6576 -52.4733 -52.2332 5.1206 1.48484 4.96805 4.93775
-52.0337 -52.4643 -52.5876 141.765 151.118 -55.3323 -50.7555 13.3136 13.8879 11.5973
7.18189 11.4766 18.7662 4.21133 3.32753 4.67002 3.66837 -53.335 -57.3382 -57.1422
-55.3938 7.76032 15.1089 11.132 4.10353 4.25938 10.1145 8.86444 9.54988 8.66369
10.4324 12.4545 10.3026 5.82284 8.57334 8.22374 -54.1915 -50.217 -48.6001 91.2171
80.2451 84.2127 66.7348 72.7202 -4.76942 -2.89344 0.345389 -1.42449 7.63173 8.14663
7.68125 8.27986 8.03459 7.52687 7.0763 116.826 106.792 94.7506 -74.0143 -57.4521
-56.1668 -54.9763 -54.8313 -54.448 -54.4417 163.486 139.768 161.894 162.003 7.62194
4.49958 10.6175 11.3169 7.20139 8.54072 7.42824 6.90389 6.15578 2.76148 -2.38812
4.75773 5.39682 5.97878 4.38526 6.69414 14.5003 9.0821 -12.8797 15.6527 14.3183
7.65135 10.7637 16.0255 9.16974 -12.7423 -13.6678 -11.7353 -2.87018 -4.92172 -13.2238
7.23766 5.26465 -14.785 -16.4034 7.16782 4.8668 -1.03993 -3.9689 -55.0744 -46.0325
13.0702 1.9471 0.266066 -0.129563 5.98349 5.54254 6.47052 6.06167 6.01837 5.60612
0.301902 6.28154 6.92095 -0.442455 5.72655 4.74589 7.20107 6.68928 6.11277 106.19
86.6552 122.01 123.794 5.21353 4.9394 3.47051 -55.2884 5.14313 6.14042 5.91719
-9.52168 -12.4862 -0.167449 6.28595 6.78196 5.40979 8.08527 5.22195 6.90757 3.90993
37.0647 -53.2625 -55.3163 -54.7921 -54.7772 -54.8323 -2.87127 -4.24472 -12.6361 -12.5046
-12.527 -3.50381 9.40049 3.09284 5.97148 7.09513 2.5921 2.36995 0.085786 -0.891271
-10.945 -5.24045 -4.13751 -11.3214 -4.19855 -12.192 5.5999 -11.4383 -12.4623 -2.47666
1.22174 6.37589 6.3846 5.8157 8.91389 0.248577 6.68208 -3.07348 -1.0839 4.39686
-0.77387 7.28112 4.90183 -9.83719 9.05935 -0.628219 6.16975 1.06896 1.46133 4.83586
5.18878 4.2819 4.99688 3.09915 7.69699 8.94235 5.48972 6.1115 0.975733 3.47455
11.1412 5.55259 0.841943 -0.524859 3.64535 173.16 176.983 176.115 181.028 169.128
168.096 172.676 179.954 180.946 69.4887 73.6967 54.8471 -56.2138 -41.5325 -38.6463
-36.9278 -31.034 -43.8184 -51.9854 -51.6361 -55.353 -46.7942 100.765 154.468 162.108
155.249 146.981 -56.6845 -56.2797 -56.614 -56.387 -55.8898 -56.3475 -54.9686 -55.2739
-55.1139 3.96798 -0.318607 171.245 -18.4322 186.023 190.269 189.417 -51.3459 -47.3137
182.754 185.884 186.06 -16.3541 -51.175 85.2591 -55.1229 -55.2488 -55.494 -55.4643
-49.4969 189.392 -2.40754 189.507 185.528 189.101 7.37358 -64.3309 110.62 109.929
-55.9546 4.65789 -51.8023 -53.1155 -51.9158 -138.293 138.724 -54.983 159.213 -52.038
-120.889 -120.807 72.2512 6.98432 2.62201 168.082 164.695 -15.4267 139.855 191.112
190.008 185.407 189.462 190.796 189.791 172.803 191.167 186.788 189.962 191.202
0.615187 0.610722 0.636043 0.705153 0.919069 1.62302 2.20914 -3.98425 1.35737 0.0238304
-4.1002 -5.86949 0.408792 0.0901254 -0.00183931 0.0050001 0.0100017 0.00538791 0.000817182 -0.000713665
-0.000384391 0.000186164 0.00110856 0.000601868 -54.1847 -52.4637 -134.166 -134.722 -48.0585 -48.5151
-49.18 -47.8988 -48.398 -49.1061 -49.7603 -47.4044 -95.2403 -74.8777 -48.8971 -47.2622
-74.3165 -48.8204 -51.2879 -51.6424 -50.7598 -99.68 -111.342 -129.662 -119.959 -119.778

U 3 2021 float
20.0062 -0.0460863 -0.215704 20.0439 -0.0309985 -0.0739621 19.9291 -0.00658494 -0.0964848 19.9357 -0.0562384
-0.606613 20.0175 -0.0598097 0.0399722 20.0179 -0.059704 0.0400042 20.1681 -0.0787966 0.0575117
20.2328 -0.0870197 0.0655406 20.2783 -0.092039 0.149153 20.2909 -0.117151 0.263661 20.2099
-0.11839 0.208583 19.9544 -0.0476406 0.0198994 19.9967 -0.0551137 0.0183794 20.0037 -0.0533824
0.00700009 19.8527 -0.0247688 0.0177507 19.8515 -0.0215308 0.0142068 20.0059 -0.0530827 0.0019129
19.8538 -0.020106 0.00972585 20.0043 -0.052254 0.000529162 19.8529 -0.0184346 0.00882954 20.0026
-0.0514267 -5.86531e-06 19.8515 -0.0168713 0.00852866 20.0011 -0.0506622 -0.000289193 19.8504 -0.0155285
0.00829307 19.9995 -0.0499745 -0.000472976 19.8493 -0.0143604 0.00807424 19.9979 -0.0493146 -0.000601114
19.8482 -0.0132956 0.00788178 19.9962 -0.0486658 -0.000700733 19.8471 -0.0123263 0.00767912 19.9945
-0.0480314 -0.000737327 19.846 -0.0114386 0.007586 19.9925 -0.047377 -0.000827984 19.845 -0.0105052
0.00730584 19.8445 -0.0100188 0.0070048 19.9922 -0.0471681 -0.00086771 19.9996 -0.000343879 3.13052e-05
20 0 0 20 0 0 19.9996 -0.000343943 7.87538e-05 19.9983
-0.000794137 9.39182e-05 19.9984 -0.0008038 0.000278889 19.9942 -0.00156259 0.00036809 19.9941 -0.00152737
0.00100021 19.9788 -0.00282445 0.000334874 19.9796 -0.0031472 0.00357678 19.9465 -0.0055355 -0.00906803
19.9363 -0.00629321 -0.0079822 19.9389 0.00219676 -0.0143398 19.9277 -0.0055362 -0.0295246 19.9061
0.00514662 -0.0610373 20.2332 -0.0732035 0.00186952 20.0485 -0.0291518 -0.0566018 20.2353 -0.0722927
0.00514718 19.9271 -0.0898554 0.0307696 20.0249 -0.11945 0.0821828 20.2325 -0.0869879 0.0650225
19.8547 -0.0300064 0.0234838 19.3066 0.120785 0.0100376 19.3387 0.118189 0.011152 19.3668
0.112436 0.0112159 19.3879 0.108134 0.0119112 19.4063 0.10434 0.0124236 19.4233 0.100733
0.0126055 19.4393 0.0973212 0.0126151 19.4543 0.0941083 0.0125457 19.4687 0.0910451 0.0124081
19.4818 0.08815 0.012296 19.4965 0.0853168 0.012017 19.5053 0.0838561 0.0117598 20
0 0 19.9996 -0.000344514 0.000137445 19.9985 -0.000802244 0.000490603 19.9945 -0.00153351
0.00171967 19.9801 -0.0032696 0.00603247 19.9197 -0.00883051 0.010735 19.9194 -0.00801112 0.000992912
19.85 -0.0167082 -0.0957933 19.7933 -0.0206414 -0.0681597 19.9558 -0.0516593 -1.02481 20.4349
-0.068863 -0.933848 20.2161 -0.0541781 -0.508576 19.9305 -0.0562708 -0.636107 20.3094 -0.16525
0.453013 20.3098 -0.166142 0.456472 20.1008 -0.252523 0.582163 19.9912 -0.241722 0.301679