# vtk DataFile Version 2.0
sampleSurface
ASCII
DATASET POLYDATA
POINTS 2021 float
-0.500032 0 0.11501 -0.499951 3.38813e-21 0.0392727 -0.789037 8.47033e-21 0.120673 -0.500013 -1.35525e-20
0.193965 1.00003 0 0.0485099 1.00003 0 0.0478584 0.475202 0 0.0353615
0.250044 1.41878e-20 0.0305359 0.2506 -5.42101e-20 0.117067 0.251301 0 0.203885 0.364989
0 0.203772 1.75002 0 0.113255 1.75002 0 0.0564279 2.50001 6.89146e-18
0.059229 2.21354 0 0.250758 2.50001 0 0.252875 3.25001 -3.47927e-17 0.0598775
3.25001 -1.69407e-21 0.253888 4.00001 5.60566e-18 0.0599857 4 0 0.253986 4.75
-1.79088e-17 0.0599988 4.75 8.47033e-22 0.253998 5.5 -2.79246e-17 0.0599999 5.5 -4.23516e-22
0.253999 6.25 1.01187e-17 0.06 6.25 0 0.254 7 2.93732e-17 0.06
7 0 0.254 7.75 -2.65294e-17 0.06 7.75 0 0.254 8.5
1.8923e-17 0.06 8.5 0 0.254 9.25 -2.88552e-17 0.06 9.25 -5.29396e-23
0.254 10 -2.64698e-23 0.254 10 0 0.06 -4.24997 0 0.0599042
-5 0 0.0599861 -5 0 0.253986 -4.24997 0 0.253912 -3.49995
0 0.0593815 -3.49994 0 0.253441 -2.74993 0 0.0570188 -2.74991 0
0.251316 -1.99991 0 0.0492276 -1.99987 0 0.242776 -1.24992 -1.69407e-21 0.03
-1.24985 1.23328e-17 0.222327 -1.24989 3.38813e-21 0.125756 -0.874924 2.08116e-17 0.03 -0.874929
0 0.122356 -0.124951 -8.47033e-22 0.03 -0.499941 0 0.03 -0.124922 -8.47033e-22
0.0385291 1.00021 0 0.231242 0.625368 0 0.203537 0.25004 -2.11758e-22 0.03
1.75003 0 0.247334 1.92873 1.69407e-21 0.441438 2.50001 0 0.447397 3.25
-1.69407e-21 0.447898 4 0 0.447986 4.75 0 0.447997 5.5 -4.23516e-22
0.447999 6.25 4.23516e-22 0.447999 7 0 0.448 7.75 -1.05879e-22 0.448
8.5 0 0.448 9.25 0 0.448 10 -2.64698e-23 0.448 -5
-8.47033e-22 0.447985 -4.24997 0 0.447919 -3.49993 0 0.4475 -2.74988 0
0.445609 -1.9998 6.77626e-21 0.437758 -1.24969 1.61411e-17 0.417681 -1.24976 -6.77626e-21 0.31973
-0.875161 7.70461e-18 0.216228 -0.875403 0 0.312476 -0.499924 -8.74138e-19 0.250039 -0.312433
0 0.250037 -0.312436 0 0.200025 -0.499924 0 0.200026 0.250062 3.38813e-21
0.24921 0.250039 -1.69407e-21 0.250046 0.250032 0 0.300069 0.437526 3.05948e-18 0.300066
0.625026 0 0.30005 1.00072 -8.23994e-18 0.326497 1.00196 0 0.423 1.75013
0 0.439575 1.75013 1.77877e-20 0.448245 1.00135 0 0.537141 1.00002 0
0.61834 1.74999 2.71051e-20 0.633055 2.49999 -3.38813e-21 0.641448 3.25 0 0.641907
4 -1.69407e-21 0.641985 4.75 -8.47033e-22 0.641996 5.5 -4.23516e-22 0.641998 6.25
0 0.641999 7 0 0.641999 7.75 0 0.642 8.5 5.29396e-23
0.642 9.25 -5.29396e-23 0.642 10 0 0.642 -5 0 0.641985
-4.24997 -1.69407e-21 0.641926 -3.49993 0 0.641557 -2.74988 0 0.639897 -1.99989
6.77626e-21 0.63382 -1.25099 2.55465e-18 0.614606 -1.25 -2.71051e-20 0.515981 -0.878244 0
0.50789 -0.875961 2.71051e-20 0.459694 -0.875609 0 0.410432 -0.498432 0 0.400603
-0.498071 -1.70762e-18 0.413126 -0.450805 0 0.413349 -0.45095 0 0.400955 0.250009
1.89735e-19 0.412703 0.25 2.71051e-20 0.425212 0.296872 1.00289e-18 0.425187 0.343754 -2.71051e-20
0.425153 0.343763 0 0.400146 0.250006 0 0.400175 1.00162 1.41488e-17 0.520353
-2 4.23516e-22 0.820145 -2.09502 -2.11758e-22 0.830091 -2 0 0.829497 -1.25123
0 0.813251 -1.25126 0 0.713737 -1.25101 6.77626e-21 0.62198 1.00059 0
0.714169 1.00094 0 0.809205 1.75018 0 0.82775 2.5 0 0.835521
3.25 0 0.835917 4 -1.69407e-21 0.835986 4.75 -8.47033e-22 0.835996 5.5
0 0.835998 6.25 0 0.835999 7 0 0.835999 7.75 0
0.836 8.5 0 0.836 9.25 0 0.836 10 0 0.836
-5 -8.47033e-22 0.835986 -4.24997 0 0.835935 -3.49995 0 0.835616 -2.74991
0 0.83419 -0.970118 0 0.703382 -0.87455 0 0.699864 -0.874264 -2.71051e-20
0.649852 -0.874033 -2.71051e-20 0.599873 -0.49698 0 0.599585 -0.497345 -9.21572e-19 0.612046
-0.450014 0 0.611892 -0.44938 2.71051e-20 0.599454 -2.00002 0 0.84097 -1.84639
-3.38813e-21 1.02215 -1.25185 0 1.01276 -0.896512 -3.38813e-21 0.900668 -0.908183 6.77626e-21
0.801076 -0.904022 -1.86347e-20 1.00093 0.624925 0 0.799916 0.249931 0 0.799891
0.249978 0 0.899916 0.249997 0 0.999939 0.999987 0 0.999957 1.75061
-2.1684e-19 1.02409 2.50003 0 1.0296 3.25 -1.69407e-21 1.02993 4 0
1.02999 4.75 0 1.03 5.5 0 1.03 6.25 2.11758e-22 1.03
7 0 1.03 7.75 0 1.03 8.5 5.29396e-23 1.03 9.25
0 1.03 10 0 1.03 -5 0 1.02999 -4.24998 0
1.02994 -3.49996 -8.47033e-22 1.02968 -2.74996 0 1.02849 -2.00026 0 1.02458
-0.87482 0 0.799893 -0.87491 0 0.899919 -0.49993 0 0.799862 -0.499958
7.6233e-19 0.849889 -0.312476 0 0.849885 -0.312472 0 0.799853 -1.25001 8.04681e-21
1.19601 -0.499979 5.29396e-23 1.10737 -0.731886 2.11758e-22 1.19997 -0.499981 0 1.19997
-0.124987 0 0.999933 -0.477759 -5.29396e-23 0.999933 -0.487556 -1.45584e-22 1.09995 0.250008
0 1.19997 1 0 1.19997 1.7507 0 1.22203 2.50003 -1.35525e-20
1.22368 3.25 0 1.22394 4 0 1.22399 4.75 4.23516e-22 1.224
5.5 0 1.224 6.25 2.11758e-22 1.224 7 0 1.224 7.75
1.05879e-22 1.224 8.5 0 1.224 9.25 0 1.224 10 2.64698e-23
1.224 -5 4.23516e-22 1.22399 -4.24999 -4.23516e-22 1.22395 -3.49998 0 1.22374
-2.75001 0 1.22279 -2.00077 0 1.21965 -1.24997 4.23516e-22 1.19997 -0.499969
-5.29396e-23 0.999933 -0.874942 0 0.999936 -0.499979 -1.32349e-23 1.09995 -2.75001 0
1.36967 -3.18711 4.23516e-22 1.41751 -2.75001 4.23516e-22 1.4171 -2.00072 3.38813e-21 1.29692
-2.00065 0 1.41474 -1.25823 6.35275e-21 1.40014 -0.980416 0 1.39998 -0.499986
0 1.39998 0.250009 0 1.39998 1 0 1.39998 1.75054 0
1.41682 2.50002 -1.35525e-20 1.41776 3.25 0 1.41796 4 4.23516e-22 1.41799
4.75 0 1.418 5.5 0 1.418 6.25 0 1.418 7
0 1.418 7.75 0 1.418 8.5 0 1.418 9.25 0
1.418 10 0 1.418 -5 0 1.41799 -4.24999 0 1.41797
-3.49999 -4.23516e-22 1.41781 -1.24998 0 1.39998 -2.80392 1.32349e-23 1.61143 -2.75
-1.32349e-23 1.6114 -2.0003 0 1.60983 -1.25396 2.64698e-23 1.60004 -1.12789 2.64698e-23
1.59999 -0.49999 1.05879e-22 1.59999 0.250008 0 1.59999 1.00001 4.23516e-22 1.59999
1.75038 0 1.61122 2.50002 0 1.61184 3.25 -4.23516e-22 1.61197 4
-4.23516e-22 1.61199 4.75 0 1.612 5.5 0 1.612 6.25 0
1.612 7 0 1.612 7.75 5.29396e-23 1.612 8.5 2.64698e-23 1.612
9.25 -1.32349e-23 1.612 10 -1.32349e-23 1.612 -5 0 1.61199 -4.24999
0 1.61198 -3.49999 0 1.61187 -1.24999 0 1.59999 -2.75 -1.32349e-23
1.63714 -2.64195 -2.11758e-22 1.80559 -2.00012 -8.47033e-22 1.80492 -1.25741 0 1.80004
-1.19082 -7.94093e-23 1.8 -0.499992 1.05879e-22 1.79999 0.250006 2.11758e-22 1.79999 1
0 1.8 1.75023 0 1.80561 2.50001 3.38813e-21 1.80592 3.25 0
1.80599 4 0 1.806 4.75 2.11758e-22 1.806 5.5 0 1.806
6.25 0 1.806 7 0 1.806 7.75 0 1.806 8.5
2.64698e-23 1.806 9.25 0 1.806 10 0 1.806 -5 0
1.806 -4.25 -2.11758e-22 1.80599 -3.49999 0 1.80594 -2.75 -1.05879e-22 1.8057
-1.24999 0 1.8 -2 -4.76456e-22 1.98532 -1.20969 -1.65436e-23 2 -0.499993
0 2 0.250006 0 2 1 0 2 1.75 0
2 2.5 0 2 3.25 0 2 4 0 2
4.75 -1.05879e-22 2 5.5 0 2 6.25 0 2 7
5.29396e-23 2 7.75 0 2 8.5 0 2 9.25 0
2 10 -1.32349e-23 2 -5 2.21817e-18 2 -4.25 1.05879e-22 2
-3.49999 0 2 -2.74999 0 2 -1.99999 -5.29396e-23 2 -1.24999
3.30872e-24 2 0.0956945 -5.42101e-20 0.203879 0.0632748 0 0.203876 0.0625511 0
0.250042 -0.403589 6.77626e-21 0.40138 -0.405779 7.7927e-19 0.38799 -0.406379 -6.77626e-21 0.375196
-0.499567 -1.35525e-20 0.375265 0.250006 -6.50521e-19 0.375144 0.156247 0 0.375155 0.156237
9.41901e-19 0.400212 0.203129 0 0.400201 0.249796 0 0.59991 0.249852 -1.0842e-19
0.587433 0.202953 0 0.587417 0.202888 6.50521e-19 0.599901 0.625121 -6.77626e-21 0.499953
0.717439 6.77626e-21 0.504955 0.625095 6.77626e-21 0.475379 0.343596 1.0842e-19 0.599918 0.343639
0 0.574939 0.296781 0 0.574964 0.249926 0 0.574977 0.62499 -4.2826e-18
0.549927 0.624917 4.55365e-18 0.599925 0.203133 0 0.412725 -0.449046 0 0.587135
-0.496581 5.42101e-20 0.587161 0.625036 -9.32414e-18 0.40006 0.625067 1.13164e-18 0.450032 0.249704
0 0.624881 0.155871 0 0.599866 0.155839 1.95156e-18 0.624853 0.249886 1.35525e-20
0.749873 0.062411 0 0.749846 0.0624478 -4.26227e-18 0.799869 -0.312472 0 0.749804
-0.499901 -3.38813e-21 0.749824 -0.691227 0 0.30453 -0.499912 3.02221e-18 0.300065 -0.875784
-3.11708e-18 0.361353 -0.592465 -2.71051e-20 0.40036 -0.499854 0 0.350135 -0.687111 1.35525e-20
0.350117 -0.68656 -2.71051e-20 0.40021 0.437526 -1.35525e-20 0.400108 0.437522 6.77626e-21 0.350086
0.250015 -2.51399e-18 0.35011 0.625027 3.38813e-21 0.350064 -0.592287 0 0.425286 -0.498048
0 0.425444 -0.873902 5.42101e-18 0.54992 -0.496663 0 0.574746 -0.591532 0
0.574798 -0.591729 0 0.599734 -0.149108 0 0.406489 -0.149477 -5.29396e-23 0.403592
-0.149678 0 0.406489 -0.451876 -2.1684e-18 0.499977 -0.451579 0 0.487563 -0.498366
0 0.487552 -0.498515 -1.0842e-19 0.499993 0.437553 0 0.450075 0.437532 -6.07153e-18
0.425113 0.254621 -1.25361e-19 0.496697 0.26485 -5.42101e-20 0.498023 0.264831 0 0.496529
0.254636 -2.30393e-19 0.49668 0.570241 0 0.499932 0.437665 -2.71051e-20 0.474991 0.437859
-2.71051e-20 0.49988 0.437372 -1.0842e-19 0.599915 0.249722 3.25261e-19 0.649874 0.43732 -5.42101e-20
0.649899 0.624872 0 0.649914 0.624883 -3.95734e-18 0.699913 0.43734 6.83047e-18 0.699894
0.249817 0 0.699869 -0.592227 0 0.624743 -0.498071 -2.71051e-20 0.624658 -0.499769
6.77626e-21 0.69979 -0.687025 0 0.699824 -0.150854 -1.03677e-18 0.599678 -0.151059 -6.77626e-21
0.605522 -0.127339 6.77626e-21 0.605681 -0.127867 0 0.599582 -0.406139 -4.40457e-20 0.699754
-0.406113 0 0.674749 -0.499634 0 0.674774 -0.18433 -4.23516e-22 0.674527 -0.163626
-4.23516e-22 0.678958 -0.165125 0 0.674537 -0.171868 4.23516e-22 0.674524 -0.14924 3.34737e-19
0.400169 -0.125737 0 0.400165 -0.12551 0 0.393854 -0.149076 -2.11758e-22 0.393877
-0.499925 -2.61564e-18 0.325088 -0.406241 0 0.325087 -0.4062 0 0.300069 -0.124901
0 0.300062 -0.218633 -3.27294e-18 0.299673 -0.218596 1.35525e-20 0.324664 -0.124851 0
0.325085 -0.126061 7.86047e-19 0.406473 -0.0785222 1.30782e-18 0.400166 -0.126118 3.38813e-21 0.41275
-0.0785648 0 0.412729 0.240678 1.0842e-18 0.500153 0.252614 -2.1684e-19 0.498317 0.252386
1.0842e-19 0.496231 0.241035 0 0.496114 0.228892 -1.35525e-20 0.496204 0.228835 6.77626e-21
0.498715 0.229819 2.71051e-20 0.500074 0.25248 0 0.499935 0.240657 -1.6263e-19 0.500957
0.264863 0 0.500154 0.264689 0 0.500951 0.437443 0 0.549896 0.437406
[...]
POINT_DATA 2021
FIELD attributes 2
p 1 2021 float
2.01442 1.44227 2.37328 4.36873 0.0583366 0.0562232 -4.20546 -6.04403 -7.69305 -6.16813 -4.32325
0.49582 0.463688 0.11139 0.326195 0.174508 0.00306634 0.0268623 0.00516615 0.0140776 0.00928572
0.0152555 0.0045482 0.00965591 -3.06182e-05 0.00430824 -0.00153509 0.00217072 -0.00115938 0.00203283 -0.000528688
0.00207322 0.000513391 0.0032926 0 0 0.615385 0.610929 0.610777 0.6151 0.636276
0.63538 0.706269 0.703135 0.928426 0.925126 1.64304 1.76456 1.78004 2.2389 2.47974
-4.05473 1.37216 -4.1075 0.650201 -0.111673 -6.03381 0.571608 0.441651 0.189169 0.0287755
0.00687765 0.00905529 0.00527088 0.000799179 -0.000773748 -0.000376559 -0.000468706 0.00261931 0 0.610345
0.61433 0.632965 0.694095 0.903986 1.95837 2.03124 3.13128 3.87572 7.33124 -3.29139
-1.04457 4.58878 -5.73386 -5.72602 -2.26741 0.336983 0.825558 1.02942 0.924493 0.520575
0.516376 0.847136 0.880641 0.42672 0.166661 0.0225262 0.00187136 0.00611908 0.00403774 0.000200094
-0.00111049 -0.000519491 -0.000331625 0.00281391 0 0.609654 0.61314 0.629327 0.681399 0.863503
1.85198 2.13801 5.13701 5.59141 4.82884 32.5832 36.468 52.0388 45.9952 4.74758
4.89525 3.38222 3.41667 2.68019 4.07981 0.840208 0.809417 0.788939 0.806701 1.39805
1.7872 1.84718 0.991851 0.482148 0.349327 0.127324 0.0132905 0.000233574 0.00673901 0.00598449
0.00246765 0.00109234 0.0014416 0.00204236 0.00348184 0 0.608778 0.611658 0.624892 0.666512
3.25365 3.75215 4.68452 4.7627 34.3618 32.6998 44.6235 50.7649 0.802868 0.782546
0.941035 1.7037 2.62843 1.1432 0.0802948 -4.87863 -5.30122 -2.7486 -0.228479 0.190893
0.0730971 -0.00568504 -0.0110526 -0.00107375 0.000784798 -0.00125675 -0.00176674 -0.000848823 0.000287103 0.0012696
0 0.607808 0.610035 0.620062 0.650523 0.741506 2.74799 1.73346 5.1885 3.29291
0.556614 -0.678105 0.699037 0.311748 0.313702 0.14356 -1.70968 0.673836 0.282222 -0.974203
-0.393862 0.0978337 0.0646241 -0.00309545 -0.0110504 -0.00116854 0.00136864 -0.000424226 -0.000926259 -4.10339e-05
0.00103786 0.0015534 0 0.606843 0.608424 0.615213 0.634389 0.678001 0.6938 0.823905
1.16009 0.325229 0.623156 0.614435 0.619529 0.657737 0.626832 0.567769 0.384941 0.0602685
-0.564284 -0.377675 0.0461198 0.059155 -0.00450536 -0.0152714 -0.00449164 -0.000838225 -0.00214157 -0.00239797
-0.00134532 -0.000148964 0.00043809 0 0.605979 0.606968 0.610789 0.567113 0.607751 0.607791
0.591741 0.496605 0.428022 0.0779464 -0.435211 -0.348805 -0.0010489 0.0479321 -0.00804866 -0.0189075
-0.0065638 -0.00182215 -0.00272984 -0.00280491 -0.00165372 -0.000393311 0.000262206 0 0.6053 0.605795
0.607244 0.496098 0.606811 0.596223 0.571416 0.458945 0.428588 0.0872951 -0.364928 -0.332878
-0.0275559 0.042854 -0.0084413 -0.019983 -0.00731032 -0.00223409 -0.00304729 -0.00305886 -0.00186089 -0.000574875
0.000125648 0 0.604863 0.605013 0.604901 0.6004 0.457821 0.565144 0.426438 0.0903951
-0.34255 -0.32773 -0.0358454 0.0413268 -0.00853463 -0.0203985 -0.00766781 -0.00246267 -0.00320674 -0.0031563
-0.00191571 -0.000610321 0.000111191 7.79287e-05 0.604709 0.604731 0.604058 0.59788 0.564633 0.445521
-10.2882 -11.146 -11.7977 70.498 60.0894 43.9032 29.6832 2.92427 1.6935 4.39842
5.05405 4.15455 4.56995 6.21064 5.4261 2.02032 1.73082 2.13534 2.96359 3.67221
3.37001 3.98244 2.24018 1.90775 6.03324 56.254 39.4493 1.92956 2.25365 3.6587
4.77552 2.19131 -4.52371 -11.2026 -9.84327 -3.1963 8.46358 7.00856 11.9113 4.75252
17.4699 20.8293 9.14149 10.5217 2.57273 1.49492 0.992012 1.65215 19.7366 36.9243
5.61504 39.6497 20.3335 18.8234 -58.7513 -58.5283 -58.7478 68.4717 68.385 47.5707
44.8045 3.39261 3.09633 -5.02888 0.332653 0.181426 -5.07857 2.58142 3.96432 3.93119
2.85487 1.84414 1.75604 1.62154 0.947065 0.758841 -1.3538 17.0088 28.1084 13.2962
7.27884 -56.6036 -56.3889 -58.8326 -58.758 13.8739 19.1099 18.4852 -46.3243 -42.7622
-44.442 -45.1802 -58.269 -57.568 -57.5488 -57.6723 16.6208 15.898 12.0157 -29.3677
-27.9648 -45.3604 -37.0671 -58.8944 -46.0667 -58.7274 -48.1785 11.0145 4.29546 10.5199
11.87 9.11371 9.38911 9.6771 4.51731 11.137 0.89217 0.722847 3.71468 3.46926
4.05556 4.31309 47.7629 68.3535 -58.8947 -56.5354 6.50674 11.1427 -51.4372 -52.7407
-58.4926 4.46225 6.29771 6.45247 6.48171 -31.4439 -40.0525 -49.4866 -29.8204 64.4196
60.8047 41.6667 41.4153 -44.1195 -56.0744 -11.5352 -8.60023 -0.450506 -24.555 -42.4571
42.99 44.3162 64.3135 66.4854 -51.7863 -49.9386 -50.7189 0.342506 -9.64556 -12.696
-11.6831 -21.6693 -24.8551 -57.8821 44.0495 21.8587 22.1522 11.7069 12.024 12.1967
13.1482 22.0287 44.5125 10.8006 12.464 11.9046 13.245 -58.7104 -58.6999 -58.1687
-58.1559 -57.5102 -56.8947 -56.5394 45.8293 66.8416 -58.374 -58.6206 -59.025 -58.2834
-29.8762 -35.094 -32.7919 -13.7568 -1.60787 -4.92803 -50.6258 -50.2836 -58.0499 -13.1509
0.119025 0.0405245 -13.3825 -58.338 -56.8486 -51.3225 -12.4979 -10.2305 -3.72381 1.54131
-7.32244 -5.53941 -18.5715 -38.3297 -41.4346 -36.3252 -52.2381 -53.2608 -52.9922 -4.05485
-17.4701 -18.2148 -4.66811 -56.1138 -51.991 -56.1362 -3.49733 -9.2115 -16.5199 -11.6572
67.5386 46.8762 -54.2946 -54.4611 -56.8628 -56.7416 -56.2591 -53.7737 -57.1535 -53.1818
-56.0193 -58.9736 -59.0983 -59.1433 -32.1794 -77.1438 -96.1915 -101.154 -103.431 -102.995
-48.6982 -50.1789 -54.2148 -48.2623 -49.8603 -98.0767 -99.4035 -71.2859 -34.2937 -58.4867
-59.293 -58.9649 -56.3371 -57.2184 -57.3109 -57.2378 -57.6388 7.10938 6.02916 8.9212
-56.0835 -55.7868 -56.0021 -55.4905 -55.6088 -55.8995 -56.3096 -55.1803 -55.1647 2.02654
1.82153 0.699628 1.19944 4.25478 4.62365 1.391 -55.906 -56.3637 -57.0116 5.78477
6.62181 2.77754 0.874744 3.13053 -32.112 -38.1289 -37.3947 -31.731 -54.6279 -55.1145
-58.0208 -57.7052 -55.0177 -55.8498 -38.9396 -43.2999 -43.103 -36.9481 -46.1142 -50.1652
-53.3153 -53.4646 -52.2938 123.578 131.436 146.781 146.869 -58.1625 -56.2078 -56.4901
-57.881 -57.7344 4.42454 2.1482 3.03879 4.62856 -9.69854 -3.88021 -5.8266 -8.86355
-11.7478 -39.0757 -36.8792 -25.5687 -27.2956 -32.1162 -39.0948 -24.9122 -24.9278 31.0948
41.2717 52.1162 37.9291 23.0742 19.2203 34.2225 26.1235 0.669369 0.827589 1.9876
34.0925 24.9158 17.119 22.2177 2.88126 3.81894 4.47236 4.58435 3.74782 6.69331
6.80641 4.65227 -9.36825 -8.257 -1.38082 -10.2453 14.6895 9.14947 10.8251 -54.6947
-56.9212 -57.0521 -54.8894 -82.7466 -81.4652 -84.7067 -47.9618 -12.7104 -18.3531 -27.633
-56.0339 -52.8594 -55.3758 -56.4485 -74.0216 -73.7469 -58.3475 -59.6186 -49.5848 -47.9677
-50.2294 -50.4067 3.74899 3.80844 -0.625243 5.99355 5.64779 4.66037 5.33165 5.72862
6.13725 -54.145 -53.7076 -68.8505 -68.0625 79.0217 94.1188 85.7192 112.121 106.432
88.8539 90.1678 161.856 164.187 153.368 121.641 98.4207 104.359 97.3172 117.655
-12.9177 -26.9904 -31.3288 -5.875 -26.1663 -52.1025 -41.7705 -6.34842 93.7154 101.215
86.8014 78.2692 96.6998 88.3945 107.602 148.458 158.213 167.403 165.142 106.628
102.904 159.628 -32.6019 -7.94974 -38.2913 -28.4994 -47.702 140.213 140.083 115.608
110.588 110.251 115.514 139.608 138.992 108.141 167.236 170.841 172.011 172.302
173.713 186.649 186.838 174.819 173.271 -33.0236 -40.1368 -32.9748 -56.4762 -50.8526
-42.7033 -41.9587 -40.6936 -25.5996 2.75454 -2.61585 -0.671233 173.391 175.335 187.19
172.362 186.506 187.149 175.222 172.167 179.595 181.758 170.109 168.877 179.893
167.878 171.094 182.417 -52.6394 -37.8122 -36.5646 -55.7752 -55.8069 -55.9165 -36.3655
-46.2348 -36.4671 -36.9368 -45.8451 -45.8127 -3.33123 -9.19238 -25.0833 -25.1267 -32.951
-43.5843 -32.9711 -32.6639 -43.0054 -21.2294 -18.9503 -20.6726 115.424 140.143 138.126
139.036 114.681 109.309 170.034 169.908 170.476 167.74 136.398 108.398 113.576
137.15 -57.2251 -54.2998 -52.9086 -52.7382 -55.7542 -46.1476 90.1763 93.4537 78.7171
-14.9939 -6.27135 -6.80778 -20.9246 54.4986 56.3589 69.9683 73.6306 -55.8475 -55.0848
-55.3848 -55.8426 -57.0191 -57.2566 -57.402 -57.5154 -56.2394 -56.3476 -55.9546 -56.0475
-135.055 -109.445 -77.8971 -95.7417 -98.1042 -99.2305 -99.2223 -83.3347 -78.9328 -92.4734
-70.2224 -84.8556 -132.557 -136.265 -128.297 -96.145 -96.9205 -54.8789 -54.3449 -55.0553
-56.1388 -56.4291 -53.9674 -53.8996 6.76854 7.292 13.7221 16.3363 13.8174 -50.9862
-50.2721 -45.8074 -46.0272 -46.2029 -46.0011 -45.9742 -45.7568 12.9446 12.6775 16.8852
8.29474 8.10184 9.66051 10.1421 10.167 8.5301 7.3519 8.11236 12.428 15.7496
13.7574 0.835357 -0.791004 -2.97956 7.06522 6.24773 5.12836 6.46436 7.17309 -52.5017
-53.3882 -56.3732 -55.6859 -48.6491 -49.6304 13.6098 15.5661 16.9607 -46.8642 -49.7672
-49.8999 -46.58 -45.7386 11.3571 11.0989 11.1417 9.55739 6.85372 -7.02109 -5.78113
5.4797 6.32718 6.29776 -48.5249 -48.8659 146.503 148.527 140.947 136.986 113.391
118.34 125.746 121.225 184.61 185.885 182.187 178.429 -55.7752 -55.7048 -53.0936
-53.0047 169.638 183.358 185.057 172.995 174.452 186.572 171.03 182.143 169.625
179.277 -16.8556 -19.1404 -23.8973 -28.1741 -26.7673 -22.8837 -8.77295 -3.44379 -3.87322
-9.06606 -14.096 -13.7423 -1.02888 -9.06472 -9.93459 -15.0148 -18.1515 -8.20872 -8.96666
-24.9571 -20.2244 -9.66295 -0.783487 -3.05412 6.04818 -3.50126 6.03086 6.79364 3.37148
3.90163 4.62243 4.18376 7.70044 6.07215 3.93071 5.78503 -18.923 -16.0093 -26.3494
-21.4834 -56.4078 -58.1539 -58.7582 -58.6236 3.01355 3.0816 5.02593 5.51069 4.26695
4.86586 -14.5459 -40.2886 -57.2251 -65.4426 -53.2427 -31.8852 -58.9413 10.7305 10.187
10.2101 -2.45014 0.201769 11.9899 17.2582 9.53242 23.7094 20.6083 10.4405 1.67096
6.81829 8.3146 13.1248 11.5593 6.80976 -53.4794 -44.0687 -49.9594 -13.1074 -43.9606
-25.013 -60.6919 -83.8189 108.75 92.8339 106.249 108.43 112.792 111.933 172.887
172.01 173.261 172.577 171.28 185.966 185.967 185.202 -58.0413 -58.2515 174.484
-56.2077 -56.2056 -57.1151 -57.2786 -56.984 -55.979 -149.166 -136.178 -136.067 -132.61
-156.748 -135.976 -132.266 -132.585 -119.347 -114.971 -80.292 -73.1504 -73.4607 -70.8551
-119.354 -121.02 -56.773 -55.764 -54.6794 -57.1328 9.47423 7.12329 10.6682 8.21325
10.9881 12.0141 12.3869 13.3455 14.1363 -55.3139 -54.3922 -56.3768 -55.1881 -53.2307
-52.9663 -53.0801 -55.0142 -5.98295 -0.477049 -1.42448 -4.60704 9.19679 9.57346 6.81399
5.84728 7.5572 9.55101 8.78997 6.70176 1.3635 8.19414 7.09876 6.93547 8.65944
10.3877 9.20203 12.033 11.3183 -54.7756 -55.1978 -55.2863 -55.4135 -55.565 -55.4142
-54.9089 -52.9204 -54.2417 -54.2503 -54.2626 -51.1874 -52.5839 -73.9006 -73.1116 -57.7314
-60.0379 -77.7084 -68.5467 -77.6617 -124.159 -128.765 -136.389 -79.65 -97.6991 -107.557
-80.5121 -99.048 128.779 113.62 148.539 151.762 -54.6898 -53.9207 -55.0285 -55.0103
-53.2126 143.892 167.877 146.152 -49.0968 -48.255 -48.6996 -49.4787 -49.2917 -49.3094
-49.236 -47.7261 -8.02091 -9.30855 -11.8533 -10.9647 -14.8134 -16.9938 -19.1397 -16.9214
-17.85 74.8092 85.5033 -58.6063 51.2066 76.5248 64.9984 75.6424 61.1062 14.0779
11.2567 45.6548 36.6384 8.37154 9.20473 3.64141 5.31061 5.11936 7.82181 6.73024
7.09804 7.48249 8.29498 -52.8819 -52.4385 -52.1522 -52.7385 -1.03061 -0.520284 -1.09665
2.26536 5.70126 5.14342 7.0929 6.52663 -51.0665 -51.4857 -51.2127 138.215 136.298
171.193 184.783 189.088 189.374 186.865 185.342 -55.8107 -55.5202 -55.8431 -55.6778
-53.2286 -45.6815 -46.5058 -47.1286 -46.3357 -46.6676 -47.9617 -56.0559 -56.0811 -56.673
-57.3832 -57.0892 -57.0734 -57.2329 -56.8503 -55.2157 -115.933 -111.558 -134.443 -110.826
-133.911 -122.138 -123.518 -133.292 -56.1593 -57.5394 -55.9745 -54.7004 13.67 12.3047
11.2822 12.4542 12.6919 13.3353 -36.8585 -36.3562 -31.565 -31.0083 -41.8396 -42.3848
-46.5539 -46.1571 -51.1921 -51.2412 -45.646 -52.2407 -51.8798 -6.18333 -0.940583 -11.455
0.641574 2.08229 8.00669 7.53909 7.86628 4.27588 10.6931 7.34502 8.76246 10.2639
10.9077 10.8015 10.9425 12.7057 12.3775 2.35716 12.447 14.8363 16.0111 3.9248
3.43468 3.17491 3.85329 -59.0121 -58.1551 -52.9639 -56.5917 -44.7065 -44.1717 -40.1218
-44.4992 -45.9159 -49.9743 -51.1894 -49.6182 -49.8408 -49.5997 -47.195 -52.2915 -47.2924
4.23109 -48.309 -49.6049 141.024 131.839 129.431 129.484 129.864 114.389 106.976
188.664 188.138 187.143 -50.7664 -51.0974 -1.38237 -0.815316 0.221577 -29.715 -30.6201
186.056 186.892 180.369 183.328 181.874 181.503 -33.2094 -29.0371 -3.14591 -7.80432
-5.91893 -3.19197 -24.827 -13.6723 -10.2479 -13.4482 -19.8942 -4.58036 80.882 56.5257
60.8513 21.0735 21.4386 68.0215 110.711 10.1417 7.19056 -2.25525 -2.50979 6.82523
7.62105 7.91226 6.09871 6.55309 24.5314 16.2901 -0.436331 19.7487 -1.77172 3.47978
8.16267 8.0865 68.0245 110.212 -54.8269 -55.9077 18.1082 91.7052 109.068 100.375
92.4148 108.036 109.154 126.571 134.307 143.185 -55.8833 81.785 73.8035 50.6639
12.5189 18.5736 16.7454 -75.5785 -56.8554 -56.8487 -56.8519 -55.2558 -55.1791 -59.897
-55.4404 -59.8952 -60.4656 23.3937 -6.49663 5.97441 10.5794 10.8144 -1.40513 -1.51093
-2.62687 -55.6963 -54.2502 -1.02171 2.53379 2.84026 -57.5898 -57.0289 -56.1691 7.94809
7.64047 4.12437 -56.6828 41.6338 49.9294 -65.9712 -58.3583 17.878 15.4021 9.00352
6.91525 5.07809 8.5291 6.96984 -54.243 -54.2007 -53.0282 -52.9587 -55.8652 -52.2938
-51.8226 -54.4157 -54.7177 -54.7083 -54.1934 -55.2903 -54.8662 -54.7191 -54.4659 4.48823
-51.8131 -57.8955 -56.8634 100.539 129.176 144.732 155.194 168.104 162.939 160.751
148.754 188.246 -52.8905 -53.8306 -51.9389 -7.42108 -10.4588 -3.27623 -49.7952 -49.8192
-49.794 -50.07 -53.2274 -47.3214 -48.8602 -47.6256 -47.1389 -47.8419 28.812 20.2405
-112.393 -120.005 -119.865 -120.502 -120.846 -73.9223 -96.4712 -73.9255 13.3653 16.9934
-10.9375 12.0722 11.5163 -5.44034 -7.01442 4.13997 2.53074 1.02539 0.678818 -0.591424
-2.20504 -0.952972 4.17949 4.55494 0.636047 2.87351 4.52749 2.44574 1.36382 13.294
17.5916 -50.1408 5.50804 12.7794 8.51131 16.5103 8.48267 11.1969 14.2212 15.9967
4.8283 5.02866 6.48158 5.90842 -2.07763 -3.99983 -6.25539 -6.15719 4.87729 1.65821
4.37319 9.44236 15.3469 16.5495 8.23362 5.65812 3.03274 2.72416 7.18327 10.6649
11.3216 11.9646 11.1004 5.69737 -3.56863 5.57191 -2.81043 3.20345 -3.57759 2.44013
11.0213 8.34922 12.3989 6.98361 9.49423 11.4144 10.8041 10.5039 7.94102 8.64902
9.17183 9.42022 7.90072 7.36664 7.38347 6.01349 -5.48557 -8.99582 -7.21293 6.4861
5.8938 7.97332 6.25133 -9.21721 -10.9774 1.07155 7.05696 5.87801 -1.68767 5.66869
-136.46 -137.422 -137.668 10.2524 -55.6455 -54.6066 -54.6602 5.23876 9.92205 5.31208
8.39944 10.9847 -55.8024 -55.7641 -55.1423 -54.8384 -61.0738 -60.5777 -61.0654 -69.1107
-116.152 -119.998 -113.83 -120.711 -49.0518 -49.5805 -47.529 -47.2292 -47.4937 -47.2052
-14.6076 -14.6073 -17.0298 -52.691 -52.5063 -52.265 5.13869 1.51118 4.98513 4.95707
-52.0648 -52.4981 -52.6218 141.782 151.129 -55.3236 -50.7554 13.3362 13.9046 11.6017
7.19817 11.4912 18.769 4.21284 3.32969 4.67064 3.66977 -53.3589 -57.2276 -57.0454
-55.2604 7.7639 15.093 11.1293 4.10593 4.25898 10.1027 8.85463 9.54157 8.6529
10.426 12.4447 10.2942 5.83327 8.57528 8.22762 -54.2211 -50.2438 -48.6026 91.2127
80.2394 84.2088 66.7283 72.714 -4.76633 -2.8956 0.339709 -1.42999 7.63108 8.14456
7.68102 8.27792 8.03258 7.52633 7.07736 116.824 106.791 94.7497 -73.8501 -57.2764
-55.9639 -54.8242 -54.6359 -54.2766 -54.2462 163.486 139.769 161.895 162.004 7.64395
4.51978 10.6292 11.3318 7.20106 8.53791 7.42852 6.90112 6.15564 2.76837 -2.37158
4.75808 5.3969 5.97861 4.38377 6.68845 14.4753 9.07002 -12.8085 15.6363 14.3184
7.66689 10.7715 15.9975 9.15827 -12.6907 -13.6112 -11.6868 -2.83199 -4.87643 -13.1517
7.24333 5.29039 -14.722 -16.332 7.20191 4.89092 -0.999246 -3.9113 -55.1195 -46.0024
13.0846 1.95497 0.280331 -0.114061 5.98674 5.54587 6.47337 6.06602 6.02295 5.61116
0.330063 6.28978 6.9275 -0.411416 5.74017 4.76332 7.20932 6.69973 6.125 106.185
86.6498 122.006 123.79 5.21585 4.94327 3.48468 -55.3373 5.14555 6.13596 5.9134
-9.51201 -12.4717 -0.173465 6.2873 6.78122 5.41768 8.09115 5.22769 6.91629 3.91904
37.4895 -53.2919 -55.1495 -54.6473 -54.6126 -54.682 -2.83941 -4.21039 -12.5679 -12.4366
-12.4589 -3.45025 9.42446 3.1315 5.99913 7.11251 2.62499 2.40355 0.126678 -0.845712
-10.8975 -5.20942 -4.10591 -11.2705 -4.16157 -12.1309 5.60848 -11.3705 -12.3944 -2.43093
1.2348 6.38172 6.39375 5.82165 8.9061 0.276482 6.69262 -3.05994 -1.06718 4.39619
-0.741829 7.27438 4.8931 -9.82324 9.04872 -0.611737 6.17369 1.07845 1.46784 4.84
5.19338 4.2845 5.00057 3.1389 7.68973 8.93336 5.49344 6.11106 0.991581 3.48335
11.1295 5.56643 0.864108 -0.511298 3.65847 173.159 176.982 176.114 181.027 169.127
168.095 172.675 179.953 180.945 69.8125 73.9934 55.2165 -56.1609 -41.5536 -38.6669
-36.9456 -31.0435 -43.8149 -52.0282 -51.6806 -55.3681 -46.7955 100.793 154.466 162.106
155.248 146.978 -56.659 -56.2553 -56.5848 -56.3612 -55.8543 -56.3222 -54.9223 -55.2278
-55.0677 3.98441 -0.309838 171.245 -18.4356 186.022 190.268 189.416 -51.3537 -47.3272
182.753 185.882 186.059 -16.32 -51.219 85.2579 -54.9968 -55.1266 -55.3811 -55.3486
-49.498 189.39 -2.40169 189.505 185.527 189.1 7.36797 -64.3426 110.668 109.98
-55.8979 4.68327 -51.8087 -53.1238 -51.9228 -137.864 138.72 -54.8455 159.22 -52.0455
-120.926 -120.844 72.2452 6.97907 2.63626 168.08 164.693 -15.4291 139.856 191.111
190.006 185.406 189.46 190.794 189.79 172.802 191.166 186.787 189.961 191.2
0.615401 0.610935 0.636266 0.705399 0.919385 1.62362 2.20999 -3.98317 1.35918 0.0235737
-4.10049 -5.86979 0.408602 0.0899656 -0.00194792 0.00496253 0.0100131 0.00540534 0.000812533 -0.000743309
-0.000427475 0.000143423 0.00107868 0.000595185 -54.2409 -52.5202 -134.205 -134.761 -48.0691 -48.5331
-49.2089 -47.9083 -48.4155 -49.135 -49.7981 -47.4072 -95.0263 -74.7028 -48.921 -47.2579
-74.1415 -48.8441 -51.3372 -51.6914 -50.807 -99.703 -111.367 -129.701 -119.996 -119.815

U 3 2021 float
20.006 -0.0460327 -0.216 20.0437 -0.0309548 -0.0740817 19.9289 -0.00658522 -0.0965244 19.9352 -0.0560791
-0.606955 20.0176 -0.0598946 0.0399752 20.018 -0.0597894 0.0400074 20.1682 -0.0788801 0.05751
20.233 -0.0871024 0.0655372 20.2785 -0.0921233 0.14922 20.2912 -0.117269 0.263731 20.2101
-0.1185 0.208608 19.9544 -0.0476697 0.0198894 19.9967 -0.0551936 0.0183698 20.0037 -0.0534595
0.00698553 19.8525 -0.0246882 0.0177424 19.8513 -0.0214565 0.0142001 20.0059 -0.0531545 0.00190012
19.8537 -0.0200424 0.00971893 20.0043 -0.0523226 0.000519759 19.8528 -0.0183774 0.00882583 20.0026
-0.0514924 -1.24876e-05 19.8514 -0.0168198 0.0085278 20.001 -0.0507247 -0.000293461 19.8503 -0.0154816
0.00829438 19.9995 -0.0500332 -0.000475599 19.8492 -0.014318 0.00807749 19.9979 -0.0493689 -0.000602446
19.8481 -0.0132575 0.00788665 19.9962 -0.0487154 -0.00070103 19.847 -0.0122923 0.00768511 19.9945
-0.0480758 -0.000737073 19.846 -0.011408 0.00759237 19.9925 -0.0474153 -0.000828255 19.845 -0.0104769
0.00731102 19.8445 -0.00999187 0.00700879 19.9922 -0.0472041 -0.000868789 19.9996 -0.000344484 3.12984e-05
20 0 0 20 0 0 19.9996 -0.000344536 7.87201e-05 19.9983
-0.000795839 9.39287e-05 19.9984 -0.000805436 0.000278877 19.9942 -0.00156611 0.000368187 19.9941 -0.00153051
0.00100043 19.9788 -0.0028283 0.000336569 19.9795 -0.00315221 0.0035809 19.9464 -0.00553841 -0.00905783
19.9362 -0.00628259 -0.00795296 19.9388 0.00220292 -0.0143213 19.9275 -0.00555822 -0.0295025 19.906
0.00513029 -0.0610006 20.2333 -0.0731906 0.00176719 20.0483 -0.0291093 -0.0566998 20.2354 -0.0722794
0.00501487 19.9269 -0.0897976 0.0306989 20.0248 -0.119542 0.0821119 20.2327 -0.0870706 0.0650187
19.8545 -0.0299158 0.0234729 19.3062 0.120877 0.0100295 19.3384 0.118253 0.0111599 19.3665
0.112483 0.0112261 19.3877 0.108176 0.0119245 19.4061 0.104375 0.0124391 19.4231 0.100763
0.0126225 19.4391 0.0973453 0.0126329 19.4542 0.0941271 0.012564 19.4685 0.0910587 0.0124263
19.4816 0.0881595 0.0123135 19.4964 0.0853233 0.0120324 19.5051 0.0838607 0.0117734 20
0 0 19.9996 -0.000345087 0.000137409 19.9985 -0.000803771 0.000490628 19.9945 -0.00153618
0.0017203 19.98 -0.00327463 0.00603825 19.9197 -0.00883583 0.0107673 19.9194 -0.00800092 0.00103165
19.8498 -0.0167213 -0.0957374 19.7932 -0.0206465 -0.0681095 19.9548 -0.05125 -1.02526 20.4344
-0.067904 -0.936516 20.2158 -0.0538321 -0.510009 19.93 -0.0561049 -0.636466 20.3099 -0.165444
0.453296 20.3102 -0.166337 0.456759 20.0992 -0.252247 0.581276 19.9896 -0.24143 0.300929