# vtk DataFile Version 2.0
sampleSurface
ASCII
DATASET POLYDATA
POINTS 2021 float
-0.500032 0 0.11501 -0.499951 3.38813e-21 0.0392727 -0.789037 8.47033e-21 0.120673 -0.500013 -1.35525e-20
0.193965 1.00003 0 0.0485099 1.00003 0 0.0478584 0.475202 0 0.0353615
0.250044 1.41878e-20 0.0305359 0.2506 -5.42101e-20 0.117067 0.251301 0 0.203885 0.364989
0 0.203772 1.75002 0 0.113255 1.75002 0 0.0564279 2.50001 6.89146e-18
0.059229 2.21354 0 0.250758 2.50001 0 0.252875 3.25001 -3.47927e-17 0.0598775
3.25001 -1.69407e-21 0.253888 4.00001 5.60566e-18 0.0599857 4 0 0.253986 4.75
-1.79088e-17 0.0599988 4.75 8.47033e-22 0.253998 5.5 -2.79246e-17 0.0599999 5.5 -4.23516e-22
0.253999 6.25 1.01187e-17 0.06 6.25 0 0.254 7 2.93732e-17 0.06
7 0 0.254 7.75 -2.65294e-17 0.06 7.75 0 0.254 8.5
1.8923e-17 0.06 8.5 0 0.254 9.25 -2.88552e-17 0.06 9.25 -5.29396e-23
0.254 10 -2.64698e-23 0.254 10 0 0.06 -4.24997 0 0.0599042
-5 0 0.0599861 -5 0 0.253986 -4.24997 0 0.253912 -3.49995
0 0.0593815 -3.49994 0 0.253441 -2.74993 0 0.0570188 -2.74991 0
0.251316 -1.99991 0 0.0492276 -1.99987 0 0.242776 -1.24992 -1.69407e-21 0.03
-1.24985 1.23328e-17 0.222327 -1.24989 3.38813e-21 0.125756 -0.874924 2.08116e-17 0.03 -0.874929
0 0.122356 -0.124951 -8.47033e-22 0.03 -0.499941 0 0.03 -0.124922 -8.47033e-22
0.0385291 1.00021 0 0.231242 0.625368 0 0.203537 0.25004 -2.11758e-22 0.03
1.75003 0 0.247334 1.92873 1.69407e-21 0.441438 2.50001 0 0.447397 3.25
-1.69407e-21 0.447898 4 0 0.447986 4.75 0 0.447997 5.5 -4.23516e-22
0.447999 6.25 4.23516e-22 0.447999 7 0 0.448 7.75 -1.05879e-22 0.448
8.5 0 0.448 9.25 0 0.448 10 -2.64698e-23 0.448 -5
-8.47033e-22 0.447985 -4.24997 0 0.447919 -3.49993 0 0.4475 -2.74988 0
0.445609 -1.9998 6.77626e-21 0.437758 -1.24969 1.61411e-17 0.417681 -1.24976 -6.77626e-21 0.31973
-0.875161 7.70461e-18 0.216228 -0.875403 0 0.312476 -0.499924 -8.74138e-19 0.250039 -0.312433
0 0.250037 -0.312436 0 0.200025 -0.499924 0 0.200026 0.250062 3.38813e-21
0.24921 0.250039 -1.69407e-21 0.250046 0.250032 0 0.300069 0.437526 3.05948e-18 0.300066
0.625026 0 0.30005 1.00072 -8.23994e-18 0.326497 1.00196 0 0.423 1.75013
0 0.439575 1.75013 1.77877e-20 0.448245 1.00135 0 0.537141 1.00002 0
0.61834 1.74999 2.71051e-20 0.633055 2.49999 -3.38813e-21 0.641448 3.25 0 0.641907
4 -1.69407e-21 0.641985 4.75 -8.47033e-22 0.641996 5.5 -4.23516e-22 0.641998 6.25
0 0.641999 7 0 0.641999 7.75 0 0.642 8.5 5.29396e-23
0.642 9.25 -5.29396e-23 0.642 10 0 0.642 -5 0 0.641985
-4.24997 -1.69407e-21 0.641926 -3.49993 0 0.641557 -2.74988 0 0.639897 -1.99989
6.77626e-21 0.63382 -1.25099 2.55465e-18 0.614606 -1.25 -2.71051e-20 0.515981 -0.878244 0
0.50789 -0.875961 2.71051e-20 0.459694 -0.875609 0 0.410432 -0.498432 0 0.400603
-0.498071 -1.70762e-18 0.413126 -0.450805 0 0.413349 -0.45095 0 0.400955 0.250009
1.89735e-19 0.412703 0.25 2.71051e-20 0.425212 0.296872 1.00289e-18 0.425187 0.343754 -2.71051e-20
0.425153 0.343763 0 0.400146 0.250006 0 0.400175 1.00162 1.41488e-17 0.520353
-2 4.23516e-22 0.820145 -2.09502 -2.11758e-22 0.830091 -2 0 0.829497 -1.25123
0 0.813251 -1.25126 0 0.713737 -1.25101 6.77626e-21 0.62198 1.00059 0
0.714169 1.00094 0 0.809205 1.75018 0 0.82775 2.5 0 0.835521
3.25 0 0.835917 4 -1.69407e-21 0.835986 4.75 -8.47033e-22 0.835996 5.5
0 0.835998 6.25 0 0.835999 7 0 0.835999 7.75 0
0.836 8.5 0 0.836 9.25 0 0.836 10 0 0.836
-5 -8.47033e-22 0.835986 -4.24997 0 0.835935 -3.49995 0 0.835616 -2.74991
0 0.83419 -0.970118 0 0.703382 -0.87455 0 0.699864 -0.874264 -2.71051e-20
0.649852 -0.874033 -2.71051e-20 0.599873 -0.49698 0 0.599585 -0.497345 -9.21572e-19 0.612046
-0.450014 0 0.611892 -0.44938 2.71051e-20 0.599454 -2.00002 0 0.84097 -1.84639
-3.38813e-21 1.02215 -1.25185 0 1.01276 -0.896512 -3.38813e-21 0.900668 -0.908183 6.77626e-21
0.801076 -0.904022 -1.86347e-20 1.00093 0.624925 0 0.799916 0.249931 0 0.799891
0.249978 0 0.899916 0.249997 0 0.999939 0.999987 0 0.999957 1.75061
-2.1684e-19 1.02409 2.50003 0 1.0296 3.25 -1.69407e-21 1.02993 4 0
1.02999 4.75 0 1.03 5.5 0 1.03 6.25 2.11758e-22 1.03
7 0 1.03 7.75 0 1.03 8.5 5.29396e-23 1.03 9.25
0 1.03 10 0 1.03 -5 0 1.02999 -4.24998 0
1.02994 -3.49996 -8.47033e-22 1.02968 -2.74996 0 1.02849 -2.00026 0 1.02458
-0.87482 0 0.799893 -0.87491 0 0.899919 -0.49993 0 0.799862 -0.499958
7.6233e-19 0.849889 -0.312476 0 0.849885 -0.312472 0 0.799853 -1.25001 8.04681e-21
1.19601 -0.499979 5.29396e-23 1.10737 -0.731886 2.11758e-22 1.19997 -0.499981 0 1.19997
-0.124987 0 0.999933 -0.477759 -5.29396e-23 0.999933 -0.487556 -1.45584e-22 1.09995 0.250008
0 1.19997 1 0 1.19997 1.7507 0 1.22203 2.50003 -1.35525e-20
1.22368 3.25 0 1.22394 4 0 1.22399 4.75 4.23516e-22 1.224
5.5 0 1.224 6.25 2.11758e-22 1.224 7 0 1.224 7.75
1.05879e-22 1.224 8.5 0 1.224 9.25 0 1.224 10 2.64698e-23
1.224 -5 4.23516e-22 1.22399 -4.24999 -4.23516e-22 1.22395 -3.49998 0 1.22374
-2.75001 0 1.22279 -2.00077 0 1.21965 -1.24997 4.23516e-22 1.19997 -0.499969
-5.29396e-23 0.999933 -0.874942 0 0.999936 -0.499979 -1.32349e-23 1.09995 -2.75001 0
1.36967 -3.18711 4.23516e-22 1.41751 -2.75001 4.23516e-22 1.4171 -2.00072 3.38813e-21 1.29692
-2.00065 0 1.41474 -1.25823 6.35275e-21 1.40014 -0.980416 0 1.39998 -0.499986
0 1.39998 0.250009 0 1.39998 1 0 1.39998 1.75054 0
1.41682 2.50002 -1.35525e-20 1.41776 3.25 0 1.41796 4 4.23516e-22 1.41799
4.75 0 1.418 5.5 0 1.418 6.25 0 1.418 7
0 1.418 7.75 0 1.418 8.5 0 1.418 9.25 0
1.418 10 0 1.418 -5 0 1.41799 -4.24999 0 1.41797
-3.49999 -4.23516e-22 1.41781 -1.24998 0 1.39998 -2.80392 1.32349e-23 1.61143 -2.75
-1.32349e-23 1.6114 -2.0003 0 1.60983 -1.25396 2.64698e-23 1.60004 -1.12789 2.64698e-23
1.59999 -0.49999 1.05879e-22 1.59999 0.250008 0 1.59999 1.00001 4.23516e-22 1.59999
1.75038 0 1.61122 2.50002 0 1.61184 3.25 -4.23516e-22 1.61197 4
-4.23516e-22 1.61199 4.75 0 1.612 5.5 0 1.612 6.25 0
1.612 7 0 1.612 7.75 5.29396e-23 1.612 8.5 2.64698e-23 1.612
9.25 -1.32349e-23 1.612 10 -1.32349e-23 1.612 -5 0 1.61199 -4.24999
0 1.61198 -3.49999 0 1.61187 -1.24999 0 1.59999 -2.75 -1.32349e-23
1.63714 -2.64195 -2.11758e-22 1.80559 -2.00012 -8.47033e-22 1.80492 -1.25741 0 1.80004
-1.19082 -7.94093e-23 1.8 -0.499992 1.05879e-22 1.79999 0.250006 2.11758e-22 1.79999 1
0 1.8 1.75023 0 1.80561 2.50001 3.38813e-21 1.80592 3.25 0
1.80599 4 0 1.806 4.75 2.11758e-22 1.806 5.5 0 1.806
6.25 0 1.806 7 0 1.806 7.75 0 1.806 8.5
2.64698e-23 1.806 9.25 0 1.806 10 0 1.806 -5 0
1.806 -4.25 -2.11758e-22 1.80599 -3.49999 0 1.80594 -2.75 -1.05879e-22 1.8057
-1.24999 0 1.8 -2 -4.76456e-22 1.98532 -1.20969 -1.65436e-23 2 -0.499993
0 2 0.250006 0 2 1 0 2 1.75 0
2 2.5 0 2 3.25 0 2 4 0 2
4.75 -1.05879e-22 2 5.5 0 2 6.25 0 2 7
5.29396e-23 2 7.75 0 2 8.5 0 2 9.25 0
2 10 -1.32349e-23 2 -5 2.21817e-18 2 -4.25 1.05879e-22 2
-3.49999 0 2 -2.74999 0 2 -1.99999 -5.29396e-23 2 -1.24999
3.30872e-24 2 0.0956945 -5.42101e-20 0.203879 0.0632748 0 0.203876 0.0625511 0
0.250042 -0.403589 6.77626e-21 0.40138 -0.405779 7.7927e-19 0.38799 -0.406379 -6.77626e-21 0.375196
-0.499567 -1.35525e-20 0.375265 0.250006 -6.50521e-19 0.375144 0.156247 0 0.375155 0.156237
9.41901e-19 0.400212 0.203129 0 0.400201 0.249796 0 0.59991 0.249852 -1.0842e-19
0.587433 0.202953 0 0.587417 0.202888 6.50521e-19 0.599901 0.625121 -6.77626e-21 0.499953
0.717439 6.77626e-21 0.504955 0.625095 6.77626e-21 0.475379 0.343596 1.0842e-19 0.599918 0.343639
0 0.574939 0.296781 0 0.574964 0.249926 0 0.574977 0.62499 -4.2826e-18
0.549927 0.624917 4.55365e-18 0.599925 0.203133 0 0.412725 -0.449046 0 0.587135
-0.496581 5.42101e-20 0.587161 0.625036 -9.32414e-18 0.40006 0.625067 1.13164e-18 0.450032 0.249704
0 0.624881 0.155871 0 0.599866 0.155839 1.95156e-18 0.624853 0.249886 1.35525e-20
0.749873 0.062411 0 0.749846 0.0624478 -4.26227e-18 0.799869 -0.312472 0 0.749804
-0.499901 -3.38813e-21 0.749824 -0.691227 0 0.30453 -0.499912 3.02221e-18 0.300065 -0.875784
-3.11708e-18 0.361353 -0.592465 -2.71051e-20 0.40036 -0.499854 0 0.350135 -0.687111 1.35525e-20
0.350117 -0.68656 -2.71051e-20 0.40021 0.437526 -1.35525e-20 0.400108 0.437522 6.77626e-21 0.350086
0.250015 -2.51399e-18 0.35011 0.625027 3.38813e-21 0.350064 -0.592287 0 0.425286 -0.498048
0 0.425444 -0.873902 5.42101e-18 0.54992 -0.496663 0 0.574746 -0.591532 0
0.574798 -0.591729 0 0.599734 -0.149108 0 0.406489 -0.149477 -5.29396e-23 0.403592
-0.149678 0 0.406489 -0.451876 -2.1684e-18 0.499977 -0.451579 0 0.487563 -0.498366
0 0.487552 -0.498515 -1.0842e-19 0.499993 0.437553 0 0.450075 0.437532 -6.07153e-18
0.425113 0.254621 -1.25361e-19 0.496697 0.26485 -5.42101e-20 0.498023 0.264831 0 0.496529
0.254636 -2.30393e-19 0.49668 0.570241 0 0.499932 0.437665 -2.71051e-20 0.474991 0.437859
-2.71051e-20 0.49988 0.437372 -1.0842e-19 0.599915 0.249722 3.25261e-19 0.649874 0.43732 -5.42101e-20
0.649899 0.624872 0 0.649914 0.624883 -3.95734e-18 0.699913 0.43734 6.83047e-18 0.699894
0.249817 0 0.699869 -0.592227 0 0.624743 -0.498071 -2.71051e-20 0.624658 -0.499769
6.77626e-21 0.69979 -0.687025 0 0.699824 -0.150854 -1.03677e-18 0.599678 -0.151059 -6.77626e-21
0.605522 -0.127339 6.77626e-21 0.605681 -0.127867 0 0.599582 -0.406139 -4.40457e-20 0.699754
-0.406113 0 0.674749 -0.499634 0 0.674774 -0.18433 -4.23516e-22 0.674527 -0.163626
-4.23516e-22 0.678958 -0.165125 0 0.674537 -0.171868 4.23516e-22 0.674524 -0.14924 3.34737e-19
0.400169 -0.125737 0 0.400165 -0.12551 0 0.393854 -0.149076 -2.11758e-22 0.393877
-0.499925 -2.61564e-18 0.325088 -0.406241 0 0.325087 -0.4062 0 0.300069 -0.124901
0 0.300062 -0.218633 -3.27294e-18 0.299673 -0.218596 1.35525e-20 0.324664 -0.124851 0
0.325085 -0.126061 7.86047e-19 0.406473 -0.0785222 1.30782e-18 0.400166 -0.126118 3.38813e-21 0.41275
-0.0785648 0 0.412729 0.240678 1.0842e-18 0.500153 0.252614 -2.1684e-19 0.498317 0.252386
1.0842e-19 0.496231 0.241035 0 0.496114 0.228892 -1.35525e-20 0.496204 0.228835 6.77626e-21
0.498715 0.229819 2.71051e-20 0.500074 0.25248 0 0.499935 0.240657 -1.6263e-19 0.500957
0.264863 0 0.500154 0.264689 0 0.500951 0.437443 0 0.549896 0.437406
[...]
POINT_DATA 2021
FIELD attributes 2
p 1 2021 float
2.12768 1.52608 2.42818 4.58045 0.204689 0.202493 -4.36032 -6.32871 -8.07808 -6.63972 -4.6483
0.817451 0.792454 0.216072 0.506394 0.277706 -0.116093 -0.0750268 -0.137546 -0.108735 -0.0334344
-0.0114871 0.0627423 0.0778349 0.10583 0.113514 0.101729 0.102504 0.073448 0.0688449 0.041267
0.0333972 0.017861 0.0092407 0 0 0.628687 0.623961 0.623827 0.628414 0.650123
0.649253 0.721488 0.718412 0.949557 0.946043 1.68765 1.80298 1.81811 2.28915 2.51732
-4.19035 1.45237 -4.24312 0.819814 -0.101019 -6.31786 0.876397 0.679084 0.288196 -0.0452085
-0.0820565 0.0101236 0.0937105 0.123085 0.106072 0.0675221 0.0286711 0.00324259 0 0.62343
0.627668 0.646885 0.709438 0.924471 1.99856 2.06959 3.20057 3.9683 7.65096 -2.78863
-0.770663 4.8106 -6.26529 -6.25854 -2.3981 0.50466 0.961977 1.16851 1.07091 0.801278
0.796147 0.992142 1.0769 0.686601 0.27092 -0.0286899 -0.0717862 0.0074982 0.0839595 0.112198
0.0975308 0.0624587 0.0267419 0.00310343 0 0.622779 0.626505 0.643289 0.696739 0.883855
1.89706 2.18423 5.23488 5.69881 4.92553 33.0861 36.9943 52.698 46.6947 5.31821
5.52881 4.18533 3.81006 2.92156 4.42068 0.974617 0.829445 0.808349 0.826714 1.44622
1.83889 1.89276 1.1671 0.615655 0.581542 0.246605 -0.0198381 -0.0757512 -0.0153816 0.054098
0.0866684 0.0818809 0.0571897 0.0294741 0.00954604 0 0.621944 0.625053 0.638866 0.681769
3.34409 3.85572 4.80319 4.8645 34.8716 33.2505 45.4326 51.5261 0.822811 0.80483
0.97662 1.74456 2.6984 1.18218 0.104869 -5.26635 -5.52734 -2.84508 -0.190077 0.379156
0.201733 -0.014708 -0.0778012 -0.031861 0.0336183 0.0717684 0.0763971 0.0603277 0.0380068 0.0192639
0 0.621015 0.62346 0.634032 0.665632 0.760348 2.82007 1.77397 5.47953 3.47435
0.799397 -0.199908 0.718478 0.347489 0.343696 0.178435 -1.71398 0.735572 0.316514 -0.993552
-0.376472 0.226546 0.188131 0.014542 -0.0544198 -0.0221678 0.0356068 0.0723496 0.0784942 0.0640651
0.0420998 0.0219131 0 0.620089 0.621878 0.629171 0.649311 0.695362 0.712892 0.889798
1.19935 0.361039 0.637946 0.62871 0.634276 0.67469 0.643162 0.58512 0.402829 0.0790913
-0.563426 -0.365881 0.140643 0.176788 0.0335183 -0.0387008 -0.0178013 0.0313944 0.064073 0.069298
0.055486 0.0345834 0.0155805 0 0.619259 0.620445 0.624726 0.584475 0.622323 0.622413
0.607501 0.513093 0.44456 0.094721 -0.427224 -0.332042 0.0772467 0.151708 0.0332839 -0.035764
-0.0198047 0.0249881 0.0560775 0.0620534 0.050302 0.0318274 0.0150594 0 0.61861 0.619291
0.621162 0.51259 0.621427 0.610939 0.586988 0.474774 0.444469 0.103747 -0.352257 -0.311552
0.0421093 0.135106 0.0326508 -0.0318025 -0.0173005 0.0252293 0.0552932 0.0614304 0.050467 0.0328203
0.016425 0 0.618196 0.618526 0.618812 0.61497 0.473653 0.58071 0.442119 0.107124
-0.328225 -0.305068 0.0311642 0.12965 0.0321778 -0.0304823 -0.0163455 0.0252366 0.0546645 0.0605281
0.0494911 0.0317832 0.0152219 0.00275852 0.618054 0.618252 0.617971 0.612443 0.580199 0.461142
-10.8932 -11.779 -12.5125 71.8656 61.8187 45.395 30.33 3.17213 1.88522 4.63419
5.40302 5.60294 6.34007 7.99205 6.97091 1.56339 1.41896 1.71742 3.90554 4.67583
4.95135 5.86356 1.8378 1.93237 6.65599 56.9513 39.986 1.79723 1.8764 4.37705
6.07476 2.83257 -4.95638 -12.128 -10.4947 -2.30284 8.94749 7.15112 12.2374 4.85959
17.6737 21.376 9.29226 10.6952 2.48488 1.62255 1.16265 1.71609 19.9503 37.3978
5.72306 40.1319 20.58 19.0624 -56.815 -56.7093 -56.8446 68.9777 68.9054 48.0274
45.227 3.29383 3.06328 3.37732 5.29412 5.11845 3.35438 2.12432 3.74868 3.47786
3.17916 2.20498 2.19082 1.87896 1.16376 1.05489 -1.35587 17.2319 28.6147 13.7459
7.41435 -56.8273 -55.8869 -59.7564 -60.4193 14.8724 20.2831 19.0339 -44.1492 -41.3475
-43.0142 -43.4531 -56.5494 -54.667 -55.3478 -56.2763 17.0838 16.7613 12.6787 -29.8741
-27.49 -44.4795 -37.8438 -55.6193 -43.2504 -55.2773 -43.6214 11.4231 7.77263 10.7492
11.6157 10.5367 10.7526 10.9558 7.81054 11.4611 5.6433 5.73186 3.50634 3.71922
3.59775 3.85047 48.2176 68.8656 -60.379 -58.0661 9.04375 11.2938 -55.7468 -56.9851
-61.0466 6.49583 8.83233 6.67049 6.9679 -31.4913 -40.4038 -46.0729 -27.8539 64.9829
61.398 42.1868 41.8835 -43.3426 -54.5548 -12.3315 -9.10024 -0.317167 -25.7686 -43.8548
43.4526 44.8247 64.9057 67.0596 -55.6982 -54.534 -55.1653 0.592578 -10.6862 -14.7019
-13.0456 -23.958 -27.986 -59.5404 44.4847 22.0872 22.3867 11.8843 12.22 12.374
13.3347 22.2681 44.9449 10.9681 12.6473 12.0818 13.434 -61.255 -61.1572 -58.2164
-58.1535 -59.3353 -60.1701 -60.5166 46.324 67.3914 -61.2165 -60.4287 -61.4008 -61.2062
-28.0046 -31.11 -27.7531 -10.4368 -0.0419559 -4.42535 -49.756 -47.361 -58.0079 -9.44805
2.40022 2.08931 -9.44498 -61.1485 -58.8216 -51.3151 -8.91508 -6.93603 -1.05568 3.64692
-6.34649 -3.66379 -16.2142 -38.9848 -43.8217 -38.3691 -56.1609 -56.8234 -57.0114 -2.25599
-15.1844 -15.6414 -2.99164 -59.1208 -54.9353 -59.5097 -1.37056 -6.53384 -13.5754 -8.22556
68.0993 47.3553 -54.3342 -54.9441 -59.4034 -59.0855 -57.3732 -52.9081 -60.254 -57.2258
-57.543 -57.8479 -58.2873 -58.4562 -26.5662 -70.5736 -88.3498 -91.6841 -88.0131 -87.2647
-36.4105 -51.024 -54.2127 -49.6926 -44.323 -92.055 -94.9141 -69.7203 -31.8534 -56.1059
-56.3387 -57.7888 -59.7841 -60.7835 -60.7922 -60.6615 -61.0078 8.42942 7.50037 9.82263
-58.3777 -58.7611 -58.9741 -57.6095 -57.8699 -56.4064 -56.6258 -56.3021 -56.2183 5.07228
4.84412 4.10759 4.27137 5.42493 6.30546 3.15762 -56.5965 -58.373 -58.421 6.70341
7.49215 4.79316 3.80503 4.9292 -27.8279 -35.4691 -34.1531 -26.5051 -55.9924 -56.9439
-60.5643 -60.8473 -55.4274 -56.3802 -34.581 -40.036 -40.8043 -33.4878 -47.91 -51.8989
-48.6826 -47.965 -48.8001 124.813 132.746 148.094 148.175 -58.1126 -56.6612 -57.0477
-61.1085 -61.1697 6.34908 4.20665 5.18106 7.25983 -5.45351 0.0366825 0.0897396 -2.9439
-5.6035 -32.27 -33.41 -20.636 -19.4643 -24.4959 -31.9516 -18.1038 -19.5992 32.4644
42.9436 53.6292 38.7341 23.6003 24.3369 37.1193 28.7507 0.85505 1.02104 2.1151
35.4137 25.9377 19.2494 25.4748 5.1053 5.78724 6.18788 6.46013 5.30033 8.32454
8.5132 5.27915 -7.90947 -6.20033 -0.942504 -9.26623 14.8815 9.3024 10.9935 -54.7687
-57.9564 -58.0395 -54.8984 -73.6978 -72.4349 -75.5684 -45.8733 -9.66271 -16.3386 -22.9695
-54.9693 -52.7035 -55.285 -55.7585 -72.2976 -72.5998 -56.6842 -57.3479 -45.0285 -51.4254
-54.3569 -53.7933 5.60587 5.95902 2.93145 5.38849 5.04205 4.93685 5.00264 5.45785
5.53619 -56.1941 -54.111 -60.4348 -59.478 80.2967 95.6479 87.4604 113.167 107.646
89.9201 91.0812 162.42 164.98 154.287 122.38 99.1111 104.904 98.1498 118.52
-13.2353 -27.7162 -31.1049 -5.79216 -27.0568 -52.2076 -42.422 -6.47562 95.1892 102.503
87.9558 79.3705 97.4337 89.3966 108.684 149.628 158.672 167.223 164.939 107.262
103.528 160.584 -36.0269 -7.99141 -41.4108 -32.3859 -53.2489 140.65 140.509 116.1
111.057 110.769 116.047 140.037 139.458 108.651 167.342 171.061 172.082 172.402
173.919 186.668 186.836 175.048 173.496 -27.9596 -37.5502 -28.7697 -58.6447 -50.7377
-40.9793 -39.9177 -38.446 -21.8579 4.69418 -0.190697 1.66833 173.619 175.575 187.302
172.588 186.314 187.074 175.463 171.71 178.868 181.342 169.72 168.535 180.237
167.854 170.753 183.375 -56.5456 -37.9754 -37.0538 -57.4959 -58.294 -57.4273 -35.6223
-48.2843 -34.4576 -33.5097 -46.6467 -46.7477 -0.518857 -5.92254 -22.3415 -21.4653 -29.1888
-41.8028 -29.5593 -29.1629 -41.4392 -17.0158 -13.9877 -16.3773 115.876 140.595 138.594
139.505 115.227 109.9 169.669 169.588 170.147 167.719 136.915 109.021 114.199
137.622 -60.0249 -54.5255 -54.7258 -51.4487 -57.0492 -45.7137 92.9975 97.0675 83.2099
-5.26267 2.7961 2.41857 -10.144 58.0533 60.2546 73.7411 76.2736 -55.2842 -54.7957
-55.1945 -55.1652 -58.1793 -59.1872 -60.0675 -59.1536 -60.6414 -59.1112 -57.3006 -58.9612
-108.927 -88.9127 -57.9979 -87.8144 -90.0656 -89.2831 -89.2774 -74.2529 -76.6044 -88.4405
-57.1051 -65.9757 -112.121 -119.514 -114.742 -91.6986 -92.2023 -58.1011 -56.6282 -57.0191
-59.7624 -60.2672 -56.9087 -55.9159 8.36922 9.30964 13.0908 15.1061 12.4987 -50.8973
-49.6103 -43.2409 -44.5058 -38.8045 -38.4246 -38.3325 -39.36 13.2372 13.5952 15.758
9.54118 9.2212 10.2647 10.3874 10.3617 10.5686 9.6058 9.87654 11.4992 13.2712
13.1879 4.43342 4.55238 2.71852 9.274 9.9914 9.40767 9.35747 9.21204 -53.7564
-53.7835 -56.6095 -56.5878 -50.0958 -49.9369 13.2521 15.2465 15.8612 -40.134 -46.9971
-48.506 -39.842 -39.4417 11.8391 11.6313 11.6539 10.3247 7.98092 -1.15807 0.154963
9.11616 9.69379 10.0166 -49.9776 -49.1571 147.87 149.894 142.45 138.581 116.015
120.568 127.983 123.489 184.396 185.625 182.046 178.35 -60.426 -61.284 -57.1234
-56.5053 169.737 183.259 185.075 173.145 174.667 186.431 171.071 181.937 169.533
179.179 -11.9483 -11.5874 -15.7848 -16.003 -15.825 -11.6738 -4.59008 0.079692 -1.21625
-5.59732 -9.81011 -8.7577 -0.756801 -9.18216 -10.0545 -14.5721 -18.2787 -7.11625 -8.19599
-25.0675 -19.7452 -9.69474 -0.590661 -3.05127 6.65034 -3.03938 6.63407 7.89161 5.36434
5.29242 5.79431 5.09768 8.19808 6.60554 5.28086 6.61077 -18.8483 -14.9601 -25.73
-20.0487 -56.1271 -56.4893 -56.8673 -57.6866 5.4043 4.94713 5.37131 5.68949 4.81648
5.40868 -13.3118 -38.7808 -56.0739 -64.9839 -51.8396 -30.6937 -57.2654 11.9638 11.637
11.6842 3.18621 5.18539 12.5869 15.2423 11.3511 18.9042 15.1208 9.75965 6.31954
9.05807 9.94342 12.9272 11.8811 10.2943 -57.5651 -44.1959 -47.6113 -9.97139 -39.8498
-20.897 -55.6164 -77.2522 112.521 98.1258 109.052 112.118 115.376 115.021 173.076
172.214 173.476 172.799 171.444 186.035 186.036 185.212 -61.2793 -61.2077 174.46
-56.6612 -56.7085 -59.5499 -59.3641 -59.9622 -56.0502 -121.632 -113.204 -113.2 -105.281
-126.549 -113.199 -119.759 -119.877 -110.638 -105.256 -71.0709 -71.8123 -71.7189 -69.0318
-111.197 -111.273 -58.348 -57.7952 -54.3072 -59.4932 10.1189 8.37512 11.8336 9.56557
11.7328 12.7391 12.8068 13.9246 14.3968 -56.7617 -56.3205 -56.6959 -56.3134 -56.0592
-54.9717 -55.3677 -56.387 -0.999727 2.14525 1.59074 -0.0930911 9.38317 9.74354 7.72813
7.39958 8.46742 9.34143 9.29052 8.61347 3.87398 9.57008 8.71995 9.04837 10.0217
11.9585 10.8944 12.8049 12.6707 -55.6652 -56.9548 -65.0946 -65.8898 -65.8557 -63.7853
-61.0897 -45.7705 -49.1444 -49.1678 -49.3269 -48.8042 -48.1122 -65.2138 -66.2522 -51.2196
-51.7258 -68.8577 -60.1639 -57.7673 -100.661 -103.611 -109.97 -70.6132 -88.3895 -95.0818
-71.3469 -89.155 130.637 115.616 149.905 153.132 -57.9682 -57.2344 -58.4374 -58.6435
-55.8186 144.263 167.88 146.526 -48.222 -47.9543 -48.6899 -50.1712 -50.1622 -50.3079
-50.2205 -44.9335 -0.319875 -0.73462 -3.35136 -3.39527 -7.89487 -8.06259 -9.03164 -8.05526
-8.16345 76.0392 87.1358 -45.5342 54.1577 78.2724 66.3258 80.3186 65.4477 22.2582
21.4252 50.637 40.9253 9.21191 9.93818 5.58213 6.85189 6.92689 9.07418 8.44641
8.39445 8.79424 9.86109 -52.3679 -50.2657 -49.4644 -51.3192 4.18383 4.77813 4.16332
6.73851 6.24147 6.36609 5.65069 6.1629 -48.3013 -48.0493 -47.4222 139.584 137.909
171.312 184.767 189.987 190.429 187.622 185.348 -60.4164 -60.7794 -60.7455 -61.6068
-58.0593 -42.1079 -43.2708 -38.1824 -35.774 -32.8806 -37.8614 -56.6038 -56.6843 -57.9894
-60.7884 -60.6546 -60.6415 -60.6616 -60.5187 -57.0121 -99.075 -97.4666 -111.973 -87.2488
-120.795 -111.722 -113.25 -119.836 -56.9352 -60.8733 -59.5008 -55.5598 12.6528 11.9091
11.1897 11.7885 12.7666 13.3216 -32.7944 -32.4197 -25.2524 -24.7604 -37.8748 -37.3602
-41.3015 -41.7752 -49.029 -48.9969 -39.6101 -53.7749 -53.3207 -0.823949 2.29199 -4.0767
3.45177 4.01925 8.25267 8.26968 8.66897 6.09508 9.4783 7.63753 8.07988 10.4356
10.5605 10.6697 10.6851 11.3396 11.2036 4.38491 11.2736 11.773 12.6185 10.0325
10.1241 10.1007 10.0099 -57.5934 -57.2295 -50.1139 -56.4494 -38.6614 -39.166 -31.5773
-39.608 -40.2084 -46.7122 -48.2597 -47.6931 -46.2266 -47.6537 -40.8921 -48.668 -42.3455
9.89783 -45.1295 -45.2054 142.508 133.681 131.243 131.104 131.474 116.456 109.68
188.623 188.095 187.117 -53.032 -52.9384 2.53814 3.10023 3.76047 -22.6668 -24.2206
185.727 186.771 180.097 183.007 181.943 182.254 -24.5389 -19.512 1.14258 -1.28137
0.152065 1.33827 -15.6781 -7.32683 -2.58239 -7.69489 -11.9486 -4.71597 81.9448 57.1526
61.4868 21.2919 21.6832 68.5605 111.237 11.6422 8.2648 4.24245 3.66906 7.18599
7.29915 6.79229 6.80027 7.20232 25.8441 18.2172 2.72221 22.1208 3.85111 7.36316
5.8584 5.70648 68.5611 110.708 -59.4289 -58.1053 20.2983 100.048 112.925 103.026
93.8899 109.523 111.902 128.283 135.589 144.402 -61.3148 91.0544 83.8159 60.2355
19.6559 25.7176 23.6462 -56.231 -58.4276 -58.4297 -58.4415 -53.6208 -53.5391 -57.7519
-53.8178 -58.9821 -58.5782 18.7177 -0.58573 7.70015 11.3927 11.5572 3.56682 3.61314
2.97352 -67.6564 -49.1661 2.19956 4.72639 5.02873 -58.8395 -57.6977 -57.0162 9.50242
9.13083 7.95966 -57.0604 44.6377 59.4872 -44.4519 -37.6741 30.2354 27.1588 9.64901
7.9763 6.74195 9.39497 8.15528 -56.6049 -56.2411 -52.2029 -52.2162 -55.405 -50.1984
-49.3319 -54.1343 -53.9337 -53.9172 -53.7864 -54.8237 -54.5129 -53.9364 -54.213 6.6636
-49.328 -51.7982 -51.7045 101.894 130.985 145.947 156.567 169.138 164.368 162.084
149.83 188.589 -55.5008 -57.6546 -54.1601 -4.41985 -7.09865 -0.677607 -50.7726 -48.451
-50.891 -49.3593 -52.087 -43.1608 -44.9084 -44.3593 -34.8817 -37.4444 35.9219 27.9315
-93.2134 -99.4808 -99.2062 -99.4229 -99.5518 -73.0755 -91.991 -73.0845 13.9687 15.4682
-3.25047 12.0283 11.0187 2.22388 1.79081 7.4036 7.14122 5.92118 6.63113 6.34575
5.0711 5.46259 8.6306 9.93656 8.18341 9.01602 9.77849 8.17719 7.77612 14.0689
16.1149 -50.4989 6.82941 10.065 8.05846 12.7721 8.54346 11.0916 11.5785 12.1351
9.90509 9.64629 9.7259 9.15453 3.31053 2.14324 0.724507 0.751036 7.26062 5.56709
7.09839 9.80118 12.9485 13.8376 9.52637 10.3117 8.53969 7.22814 9.18579 11.2085
11.6785 11.845 11.4239 10.3247 7.09381 10.2851 7.34676 6.46357 7.04533 8.29772
11.9441 10.3513 12.3435 10.0872 11.178 11.8698 11.5452 11.4549 10.146 10.8416
11.2344 11.3114 10.4818 10.6713 9.91986 9.09332 2.77621 2.6468 3.99691 8.27886
8.29784 9.93268 7.92919 2.8569 2.22732 8.58131 11.1795 11.1855 7.73372 10.319
-114.648 -119.518 -120.432 10.7725 -58.652 -55.1717 -54.9605 6.56595 9.74015 7.77697
9.18022 12.7019 -58.5771 -58.6787 -56.4356 -54.4874 -53.6732 -53.0725 -52.6946 -60.29
-99.1555 -99.2341 -98.0558 -99.8736 -49.194 -50.2388 -39.129 -38.3806 -42.3688 -37.4495
-6.22349 -6.22414 -7.65144 -51.2621 -50.4861 -49.5391 7.38753 6.12923 6.49965 7.70297
-48.7001 -49.572 -50.8601 143.077 152.337 -61.6296 -53.035 13.8536 12.6549 10.6596
7.54351 10.8132 14.1011 5.40663 4.65669 5.70337 4.47876 -52.897 -55.9759 -56.0327
-54.648 9.20566 12.6983 11.4277 8.23982 8.03151 11.5662 10.5216 10.9005 10.7166
11.0917 11.4878 11.1873 8.44368 6.51782 6.02517 -54.0075 -51.5501 -41.8097 94.2876
82.7255 87.4047 70.3923 76.5249 -0.0389215 1.20555 2.96056 1.20476 8.49301 8.7981
8.34119 9.65655 9.12464 8.77263 8.62973 119.029 108.406 96.4063 -73.0151 -57.7717
-55.4089 -53.5535 -52.5524 -53.2049 -53.1837 163.772 140.236 162.196 162.264 9.52136
7.451 11.0955 11.1625 7.96596 9.42614 8.07122 7.45531 6.76072 7.27638 3.60939
6.16184 6.56536 6.95127 7.8697 7.90878 12.7412 11.234 -2.5939 13.7637 13.7399
11.2759 12.3417 12.8029 8.76641 0.842371 1.15515 -0.450017 2.88753 1.06109 -2.79897
9.18902 9.13599 0.486738 -0.335064 9.27959 10.7815 8.11442 5.83192 -60.018 -40.8835
11.9394 6.45741 5.43248 5.27318 7.84749 7.59406 8.39495 7.83417 7.7878 7.42459
5.30941 8.70834 9.04065 4.97379 6.3435 6.4219 6.33456 6.51047 6.7329 106.221
86.8588 123.61 124.441 8.67959 8.34811 6.18528 -60.4615 8.63147 10.1247 10.0419
-3.06792 -4.72192 2.26475 8.22332 9.69547 7.73684 10.4756 6.88236 9.70146 6.0162
49.0418 -52.9854 -55.5102 -54.2658 -54.9393 -54.5146 4.31093 4.00239 2.84634 2.93846
2.93864 7.19475 10.8598 7.80052 9.79674 11.2661 10.2699 10.2437 9.63097 8.51685
-1.83954 1.46828 1.40447 -2.66115 1.13757 -2.68399 7.61188 3.76645 2.9643 8.75583
5.87491 7.27272 7.12277 7.36995 10.5553 5.31578 6.51249 2.46543 4.87141 6.69628
4.5833 10.4983 6.51466 -2.87385 10.315 5.06589 7.77863 5.55975 5.25439 7.3337
7.57472 6.77051 7.80608 8.16603 7.97301 9.66878 8.27377 9.70215 5.52564 7.43442
11.5698 8.59186 4.79521 4.64189 6.17312 173.997 177.553 175.771 180.194 168.914
168.505 173.062 180.11 180.971 80.6658 84.3682 66.3853 -57.6886 -38.7545 -35.5441
-33.0062 -24.8328 -39.5219 -50.602 -50.215 -56.6038 -45.3686 103.023 155.877 163.453
156.507 148.018 -60.0417 -59.9394 -58.723 -59.6997 -56.3806 -59.8633 -55.6097 -55.9442
-55.8065 5.15288 2.83985 171.422 -12.2668 185.999 190.243 189.278 -51.5055 -46.6497
183.265 188.172 187.56 -12.4921 -48.3902 87.189 -54.8563 -55.1067 -55.2294 -55.5349
-47.9274 190.667 1.00682 189.49 185.469 188.962 8.39816 -59.5552 113.98 113.527
-57.9853 6.99137 -53.4098 -55.7317 -53.7977 -120.009 139.463 -54.5642 160.653 -54.2078
-99.5929 -99.5568 74.1517 7.73867 5.7635 169.102 165.689 -13.9823 140.275 190.954
189.936 185.192 189.893 190.407 189.36 173.024 191.243 186.794 189.936 190.925
0.6287 0.623967 0.650107 0.720596 0.940332 1.66714 2.26053 -4.11521 1.43931 0.185714
-4.2428 -6.14272 0.737728 0.186369 -0.129672 -0.143753 -0.035718 0.0634392 0.108921 0.106554
0.0792423 0.0472247 0.0231175 0.00461663 -49.1438 -45.0527 -108.6 -109.043 -48.0531 -48.059
-50.0494 -48.1368 -47.612 -49.5837 -48.9618 -45.2029 -90.7729 -73.766 -48.1118 -39.4819
-73.2508 -47.4751 -48.7789 -48.727 -47.2829 -89.8643 -97.3901 -105.712 -99.2338 -99.2066

U 3 2021 float
20.0071 -0.0413092 -0.22456 20.0465 -0.0268052 -0.0784914 19.9277 -0.0024906 -0.100071 19.9309 -0.0470212
-0.627723 20.0152 -0.0398044 0.0420136 20.0155 -0.0397719 0.0420908 20.1759 -0.0517167 0.0614421
20.245 -0.0568407 0.0702776 20.2934 -0.0566166 0.15639 20.3125 -0.0539273 0.265717 20.2291
-0.0588544 0.212498 19.9454 -0.0294214 0.0180973 19.988 -0.0354719 0.0173223 19.9979 -0.0340364
0.00659807 19.8457 -0.0136116 0.0144335 19.8464 -0.0126634 0.0110394 20.0038 -0.0333461 0.000841758
19.8524 -0.0118529 0.00661668 20.0041 -0.0323315 -0.00132659 19.8544 -0.0109617 0.00498402 20.0026
-0.0310962 -0.00249198 19.8545 -0.00995883 0.00375415 20.001 -0.0298197 -0.00322361 19.8543 -0.00912473
0.002469 19.9998 -0.0285708 -0.00355966 19.8544 -0.00839269 0.00127764 19.9987 -0.0273677 -0.00355318
19.8546 -0.0077511 0.000368843 19.9977 -0.0261941 -0.00324679 19.8549 -0.00720428 -0.000150042 19.9967
-0.0250912 -0.00272264 19.8551 -0.00666741 -0.000290292 19.9955 -0.0237887 -0.00210584 19.8551 -0.00615772
-0.000280715 19.8551 -0.00593257 -0.000288051 19.9955 -0.0230837 -0.0017056 19.9996 -0.000307808 2.98677e-05
20 0 0 20 0 0 19.9996 -0.000301021 7.17763e-05 19.9982
-0.000751736 9.05609e-05 19.9983 -0.000738599 0.000265767 19.9939 -0.00142763 0.000372094 19.9939 -0.00136477
0.000992667 19.9777 -0.00255585 0.000318401 19.9786 -0.00281993 0.00356732 19.9451 -0.00448235 -0.00940059
19.9342 -0.00571434 -0.00838374 19.9375 0.00396375 -0.0148349 19.9265 -0.00246129 -0.030514 19.9041
0.00903739 -0.063057 20.2442 -0.0537484 0.000926118 20.0513 -0.02503 -0.0606012 20.2463 -0.0520299
0.00368 19.9236 -0.049399 0.0201142 20.0385 -0.068869 0.0901748 20.2447 -0.0568415 0.0697441
19.8446 -0.0151452 0.0199244 19.3215 0.0700619 0.00871142 19.3543 0.06525 0.00991047 19.3751
0.06197 0.0101465 19.387 0.0598459 0.0101755 19.3952 0.0582116 0.0100109 19.4025 0.0566078
0.00954159 19.4094 0.0550106 0.00893062 19.4158 0.0534054 0.00835792 19.4217 0.0517895 0.00792867
19.427 0.0502567 0.0076518 19.4316 0.0486664 0.00753073 19.4337 0.0478003 0.00751906 20
0 0 19.9996 -0.000292683 0.000128016 19.9984 -0.000710719 0.000475121 19.9943 -0.00130123
0.00171243 19.9792 -0.00270185 0.00605794 19.9165 -0.007821 0.00984619 19.9162 -0.00774159 0.000244176
19.8454 -0.0126666 -0.0991022 19.7868 -0.0161134 -0.070663 19.9469 -0.0401395 -1.06641 20.4322
-0.0492728 -0.992234 20.217 -0.0367323 -0.532825 19.925 -0.0466281 -0.658602 20.3305 -0.0672723
0.440564 20.3309 -0.0675264 0.443759 20.0898 -0.110199 0.545438 19.9735 -0.121362 0.299333
19.837 -0.0914937 0.145356 19.6398 -0.0293003 0.0359584 18.6528 0.155123 0.0900583 19.3112
0.0715652 0.00833633 19.3161 0.0708287 0.00797809 17.5756 0.264623 -0.0208364 18.5406 0.0983522
-0.103337 19.4207 0.0551089 0.000328012 19.4728 0.0469971 0.00916587 19.4912 0.0443668 0.0117272