# vtk DataFile Version 2.0
tracks
ASCII
DATASET POLYDATA
POINTS 2585 float
-1.001 -0.05 0.0011 -0.900789 -0.0500215 0.00109731 -0.800577 -0.050043 0.00109463 -0.700366 -0.0500644
0.00109196 -0.600155 -0.0500857 0.0010893 -0.499943 -0.0501071 0.00108664 -0.424945 -0.050111 0.00107894
-0.349947 -0.0501518 0.00106882 -0.274949 -0.0501923 0.00105879 -0.19995 -0.0502323 0.00104885 -0.124952
-0.050272 0.00103901 -0.0499538 -0.0502814 0.00103925 0.0250446 -0.0502901 0.00104799 0.100043 -0.0502989
0.00105679 0.175041 -0.0503077 0.00106568 0.25004 -0.0503166 0.00107464 0.400037 -0.0503104 0.00109071
0.550035 -0.0503085 0.00110492 0.700032 -0.0503065 0.00111932 0.85003 -0.0503045 0.00113391 1.00003
-0.0503024 0.00114868 1.15003 -0.050313 0.00115588 1.30002 -0.0503186 0.00116035 1.45002 -0.0503242
0.00116483 1.60002 -0.0503298 0.00116933 1.75002 -0.0503355 0.00117385 1.90002 -0.050344 0.00117672
2.05002 -0.0503504 0.00117864 2.20001 -0.0503568 0.00118057 2.35001 -0.0503632 0.0011825 2.50001
-0.0503696 0.00118443 2.65001 -0.0503775 0.00118548 2.80001 -0.0503855 0.00118616 2.95001 -0.0503935
0.00118684 3.10001 -0.0504015 0.00118753 3.25001 -0.0504095 0.00118821 3.40001 -0.0504173 0.00118849
3.55001 -0.050426 0.00118906 3.70001 -0.0504347 0.00118963 3.85001 -0.0504435 0.0011902 4.00001
-0.0504522 0.00119077 4.15 -0.0504599 0.00119085 4.3 -0.0504694 0.00119151 4.45 -0.0504789
0.00119217 4.6 -0.0504884 0.00119284 4.75 -0.0504979 0.0011935 4.9 -0.0505055 0.0011935
5.05 -0.0505155 0.00119432 5.2 -0.0505255 0.00119515 5.35 -0.0505355 0.00119597 5.5
-0.0505455 0.0011968 5.65 -0.050553 0.00119675 5.8 -0.0505633 0.00119773 5.95 -0.0505736
0.00119872 6.1 -0.050584 0.0011997 6.25 -0.0505943 0.00120069 6.4 -0.0506017 0.00120062
6.55 -0.0506122 0.00120173 6.7 -0.0506227 0.00120285 6.85 -0.0506333 0.00120397 7
-0.0506438 0.00120509 7.15 -0.0506512 0.001205 7.3 -0.0506618 0.00120623 7.45 -0.0506725
0.00120746 7.6 -0.0506832 0.00120868 7.75 -0.0506939 0.00120991 7.9 -0.0507012 0.00120981
8.05 -0.050712 0.00121112 8.2 -0.0507227 0.00121244 8.35 -0.0507335 0.00121376 8.5
-0.0507444 0.00121508 8.65 -0.0507516 0.00121496 8.8 -0.0507624 0.00121636 8.95 -0.0507733
0.00121775 9.1 -0.0507842 0.00121914 9.25 -0.0507951 0.00122054 9.4 -0.0508022 0.00122041
9.55 -0.0508589 0.00122251 9.7 -0.0509665 0.00122534 9.85 -0.051125 0.00122888 10
-0.0513345 0.00123315 -1.001 -0.05 0.0537316 -0.900807 -0.0501055 0.0535766 -0.800614 -0.0502113
0.0533944 -0.700421 -0.0503404 0.0531785 -0.600229 -0.0505003 0.052927 -0.500035 -0.0506909 0.05264
-0.425004 -0.0509383 0.0524174 -0.349973 -0.0512747 0.0521279 -0.274943 -0.0516583 0.0518593 -0.199912
-0.0520754 0.051633 -0.124879 -0.0524768 0.0514891 -0.0498864 -0.0527419 0.0515261 0.0251065 -0.0529605
0.0516918 0.100099 -0.0531743 0.051926 0.175092 -0.0533973 0.0522083 0.250087 -0.0536155 0.0525257
0.400077 -0.0539986 0.0531613 0.550067 -0.0543795 0.0536762 0.700057 -0.0547194 0.0541423 0.850047
-0.0550182 0.0545593 1.00003 -0.0552838 0.0549267 1.14677 -0.0556496 0.0552048 1.29351 -0.0559839
0.0554643 1.44025 -0.0563156 0.0556902 1.58699 -0.0566446 0.0558824 1.70435 -0.0569058 0.0560091
1.71348 -0.0569269 0.0560176 1.72262 -0.0569481 0.056026 1.73175 -0.0569694 0.0560344 1.74088
-0.0569908 0.0560427 1.75002 -0.0570123 0.0560508 1.90002 -0.0573672 0.0561841 2.05002 -0.0577177
0.0563 2.20001 -0.0580644 0.0563983 2.35001 -0.0584072 0.0564789 2.50001 -0.0587462 0.0565419
2.65001 -0.0590904 0.0565938 2.80001 -0.0594342 0.056639 2.95001 -0.0597772 0.0566764 3.10001
-0.0601194 0.0567062 3.25001 -0.0604608 0.0567283 3.40001 -0.0608032 0.0567454 3.55001 -0.061147
0.0567617 3.70001 -0.0614892 0.056776 3.85001 -0.06183 0.0567882 4.00001 -0.0621693 0.0567984
4.15 -0.0625065 0.0568062 4.3 -0.0628474 0.056815 4.45 -0.0631868 0.0568231 4.6
-0.0635247 0.0568304 4.75 -0.0638613 0.056837 4.9 -0.064193 0.0568413 5.05 -0.06453
0.0568475 5.2 -0.0648657 0.0568533 5.35 -0.0652 0.0568588 5.5 -0.065533 0.0568638
5.65 -0.0658593 0.0568663 5.8 -0.0661919 0.0568714 5.95 -0.0665234 0.0568761 6.1
-0.0668536 0.0568807 6.25 -0.0671826 0.056885 6.4 -0.0675036 0.0568864 6.55 -0.0678318
0.0568908 6.7 -0.0681588 0.056895 6.85 -0.0684846 0.0568991 7 -0.0688093 0.056903
7.15 -0.0691252 0.0569037 7.3 -0.0694488 0.0569076 7.45 -0.0697713 0.0569115 7.6
-0.0700925 0.0569152 7.75 -0.0704126 0.0569189 7.9 -0.0707235 0.056919 8.05 -0.0710425
0.0569227 8.2 -0.0713602 0.0569265 8.35 -0.0716769 0.0569302 8.5 -0.0719924 0.0569339
8.65 -0.0722983 0.0569339 8.8 -0.0726125 0.0569376 8.95 -0.0729255 0.0569413 9.1
-0.0732374 0.0569448 9.25 -0.073548 0.0569482 9.4 -0.0738488 0.0569478 9.55 -0.0741586
0.0569513 9.7 -0.0744678 0.0569548 9.85 -0.0747765 0.0569583 10 -0.0750848 0.0569617
-1.001 -0.05 0.106363 -0.900818 -0.0500774 0.106138 -0.800636 -0.0501526 0.105866 -0.700455
-0.0502543 0.105547 -0.600274 -0.0504259 0.105006 -0.50009 -0.0506672 0.104244 -0.424996 -0.0509532
0.103659 -0.349901 -0.0513004 0.103054 -0.274807 -0.0516517 0.102518 -0.199711 -0.0519484 0.102089
-0.124607 -0.0522892 0.101987 -0.0496047 -0.0525356 0.1021 0.0253974 -0.0527269 0.10233 0.100399
-0.0529053 0.102642 0.175401 -0.0531041 0.103039 0.250411 -0.0533229 0.103521 0.400346 -0.0537261
0.104521 0.550283 -0.0541281 0.105393 0.70022 -0.0544914 0.106177 0.850157 -0.0548242 0.106794
1.00009 -0.0551263 0.107244 1.15007 -0.055564 0.107509 1.30006 -0.055858 0.107805 1.45005
-0.0561014 0.108081 1.60003 -0.0563388 0.108324 1.75002 -0.0565703 0.108535 1.90002 -0.0568761
0.10868 2.05002 -0.0571182 0.108835 2.20001 -0.0573545 0.108974 2.35001 -0.0575883 0.109096
2.50001 -0.0578196 0.1092 2.65001 -0.0581076 0.109269 2.80001 -0.0583533 0.109337 2.95001
-0.0585978 0.109397 3.10001 -0.0588416 0.109449 3.25001 -0.0590847 0.109494 3.40001 -0.0593711
0.109529 3.55001 -0.0596208 0.109562 3.70001 -0.0598686 0.109593 3.85001 -0.0601148 0.109622
4 -0.0603595 0.10965 4.15 -0.0606399 0.109676 4.3 -0.0608896 0.109697 4.45
-0.0611375 0.109717 4.6 -0.0613838 0.109737 4.75 -0.0616286 0.109756 4.9 -0.0619026
0.109779 5.05 -0.0621504 0.109794 5.2 -0.0623966 0.109808 5.35 -0.0626413 0.109823
5.5 -0.0628846 0.109837 5.65 -0.0631523 0.109857 5.8 -0.0633976 0.109868 5.95
-0.0636414 0.109879 6.1 -0.0638839 0.109889 6.25 -0.0641252 0.1099 6.4 -0.0643869
0.109919 6.55 -0.0646293 0.109927 6.7 -0.0648704 0.109935 6.85 -0.0651103 0.109942
7 -0.065349 0.109949 7.15 -0.0656048 0.109968 7.3 -0.0658442 0.109973 7.45
-0.0660822 0.109979 7.6 -0.0663191 0.109984 7.75 -0.0665548 0.109989 7.9 -0.066805
0.110007 8.05 -0.0670411 0.11001 8.2 -0.0672759 0.110014 8.35 -0.0675096 0.110018
8.5 -0.0677422 0.110021 8.65 -0.067987 0.110039 8.8 -0.0682196 0.110041 8.95
-0.0684509 0.110044 9.1 -0.068681 0.110046 9.25 -0.06891 0.110048 9.4 -0.0691491
0.110065 9.55 -0.0693784 0.110066 9.7 -0.0696072 0.110067 9.85 -0.0698354 0.110068
10 -0.0700632 0.110069 -1.001 -0.05 0.158995 -0.900796 -0.050088 0.15877 -0.800593
-0.0501917 0.158425 -0.700392 -0.0503524 0.157689 -0.600196 -0.0505828 0.156478 -0.499992 -0.0508747
0.15464 -0.42472 -0.0514803 0.153037 -0.349437 -0.0519458 0.152117 -0.274149 -0.0523404 0.151555
-0.19886 -0.0527328 0.151263 -0.123699 -0.0530475 0.151316 -0.0487804 -0.0531683 0.15148 0.0261373
-0.0532441 0.151961 0.101053 -0.0533809 0.152666 0.175968 -0.0535446 0.153464 0.250944 -0.0536958
0.154292 0.400784 -0.0539025 0.155713 0.550625 -0.0544037 0.15689 0.700468 -0.0548712 0.157643
0.850313 -0.0552653 0.158241 1.00014 -0.0556286 0.158671 1.15012 -0.0561283 0.158916 1.30009
-0.0564838 0.159193 1.45007 -0.0567466 0.15946 1.60005 -0.0569331 0.159715 1.75002 -0.0571137
0.159936 1.90002 -0.0573695 0.160091 2.05002 -0.0575613 0.160257 2.20002 -0.0577409 0.160409
2.35001 -0.0579118 0.160545 2.50001 -0.0580802 0.160664 2.65001 -0.0583059 0.160748 2.80001
-0.0584891 0.16083 2.95001 -0.05867 0.160905 3.10001 -0.0588493 0.160973 3.25001 -0.059028
0.161033 3.40001 -0.05925 0.161083 3.55001 -0.0594355 0.161132 3.70001 -0.0596181 0.161179
3.85001 -0.0597986 0.161225 4 -0.0599775 0.161269 4.15 -0.060192 0.161311 4.3
-0.060376 0.161349 4.45 -0.0605575 0.161386 4.6 -0.0607368 0.161423 4.75 -0.0609146
0.161459 4.9 -0.0611213 0.161498 5.05 -0.0613022 0.16153 5.2 -0.0614808 0.161562
5.35 -0.0616575 0.161593 5.5 -0.0618329 0.161624 5.65 -0.0620322 0.161662 5.8
-0.0622095 0.16169 5.95 -0.0623849 0.161718 6.1 -0.0625586 0.161746 6.25 -0.0627311
0.161773 6.4 -0.0629235 0.161809 6.55 -0.0630972 0.161834 6.7 -0.0632691 0.161859
6.85 -0.0634395 0.161884 7 -0.0636086 0.161908 7.15 -0.0637945 0.161943 7.3
-0.0639643 0.161966 7.45 -0.0641325 0.161988 7.6 -0.0642993 0.162011 7.75 -0.064465
0.162033 7.9 -0.0646446 0.162067 8.05 -0.0648106 0.162088 8.2 -0.0649751 0.162108
8.35 -0.0651383 0.162129 8.5 -0.0653004 0.162149 8.65 -0.0654742 0.162183 8.8
-0.0656362 0.162203 8.95 -0.0657967 0.162222 9.1 -0.0659558 0.162241 9.25 -0.0661138
0.16226 9.4 -0.0662814 0.162293 9.55 -0.0664397 0.162311 9.7 -0.0665971 0.162328
9.85 -0.0667538 0.162345 10 -0.06691 0.162362 -1.001 -0.05 0.211626 -0.947632
-0.0500803 0.211469 -0.894265 -0.050165 0.211279 -0.840897 -0.0502544 0.211055 -0.78753 -0.0503882
0.210764 -0.724316 -0.0506314 0.210286 -0.679438 -0.0509084 0.209636 -0.634565 -0.0512425 0.208757
-0.589695 -0.0515805 0.207742 -0.544828 -0.0519234 0.206589 -0.499928 -0.0522726 0.205296 -0.469411
-0.0525661 0.204242 -0.438897 -0.0528696 0.203125 -0.408378 -0.0531576 0.202136 -0.377855 -0.0534313
0.201267 -0.329614 -0.0538484 0.200029 -0.288651 -0.0541866 0.199123 -0.247685 -0.0545245 0.198432
-0.206714 -0.0548664 0.198055 -0.165741 -0.0551729 0.197964 -0.124884 -0.0554048 0.198137 -0.0496125
-0.0557077 0.198847 0.025657 -0.0558417 0.199796 0.100922 -0.0559477 0.201077 0.176185 -0.056087
0.202437 0.251487 -0.0562196 0.20359 0.251874 -0.0562202 0.203595 0.25226 -0.0562207 0.2036
0.252647 -0.0562213 0.203605 0.253033 -0.0562219 0.20361 0.253422 -0.0562224 0.203615 0.327791
-0.0563326 0.204587 0.402163 -0.0564449 0.205433 0.476536 -0.0565594 0.206152 0.550909 -0.0567026
[...]
POINT_DATA 2585
FIELD attributes 4
age 1 2585 float
0 0.00501121 0.0100224 0.0150336 0.0200448 0.025056 0.0288056 0.0325533 0.036301 0.0400488 0.0437965
0.0475449 0.0512905 0.0550361 0.0587817 0.0625272 0.070024 0.0775229 0.0850219 0.0925209 0.10002
0.10752 0.115019 0.122519 0.130019 0.137519 0.145019 0.152519 0.160019 0.167518 0.175018
0.182518 0.190018 0.197517 0.205017 0.212517 0.220017 0.227516 0.235016 0.242516 0.250015
0.257515 0.265015 0.272515 0.280015 0.287514 0.295014 0.302514 0.310014 0.317513 0.325013
0.332513 0.340013 0.347512 0.355012 0.362512 0.370012 0.377512 0.385011 0.392511 0.400011
0.407511 0.415011 0.42251 0.43001 0.43751 0.44501 0.45251 0.460009 0.467509 0.475009
0.482509 0.490009 0.497508 0.505008 0.512508 0.520008 0.527507 0.535005 0.542503 0.55
0 0.00502602 0.0100533 0.0150747 0.0200878 0.0250929 0.028832 0.0325652 0.0362916 0.0400112
0.0437246 0.0474308 0.0511301 0.0548275 0.0585249 0.062224 0.0696347 0.0770708 0.0845216 0.0919872
0.0994675 0.106799 0.114131 0.121464 0.128799 0.134666 0.135123 0.13558 0.136037 0.136493
0.13695 0.144451 0.151951 0.15945 0.166949 0.174447 0.181945 0.189443 0.19694 0.204437
0.211934 0.219431 0.226928 0.234425 0.241922 0.249419 0.256917 0.264415 0.271912 0.27941
0.286907 0.294406 0.301904 0.309402 0.3169 0.324398 0.331897 0.339396 0.346894 0.354393
0.361891 0.369391 0.37689 0.384389 0.391888 0.399387 0.406887 0.414386 0.421886 0.429385
0.436885 0.444386 0.451886 0.459386 0.466886 0.474386 0.481887 0.489387 0.496888 0.504389
0.511889 0.519391 0.526892 0.534393 0.541894 0.549395 0 0.005028 0.0100578 0.0150818
0.0200993 0.0251104 0.0288574 0.0325974 0.0363282 0.040054 0.0437701 0.0474748 0.0511738 0.0548716
0.0585685 0.062265 0.0696634 0.0770888 0.0845323 0.0919979 0.0994852 0.106988 0.114493 0.122
0.129509 0.137018 0.144533 0.152042 0.15955 0.167058 0.174565 0.182078 0.189583 0.197089
0.204594 0.212099 0.219611 0.227116 0.234621 0.242126 0.249631 0.257143 0.264649 0.272154
0.27966 0.287165 0.294678 0.302184 0.30969 0.317196 0.324702 0.332215 0.339721 0.347227
0.354734 0.36224 0.369754 0.37726 0.384767 0.392273 0.39978 0.407294 0.414801 0.422308
0.429815 0.437322 0.444837 0.452344 0.459852 0.467359 0.474867 0.482382 0.489889 0.497397
0.504905 0.512413 0.519929 0.527437 0.534945 0.542453 0.549961 0 0.00503011 0.0100662
0.0150995 0.0201269 0.0251494 0.0289152 0.0326691 0.036411 0.0401426 0.0438574 0.0475523 0.0512419
0.0549303 0.058618 0.0623093 0.0696963 0.0771198 0.0845738 0.0920442 0.0995359 0.107048 0.114561
0.12208 0.129602 0.137125 0.144655 0.152178 0.159701 0.167224 0.174746 0.182274 0.189794
0.197315 0.204835 0.212356 0.219882 0.227403 0.234923 0.242443 0.249963 0.257491 0.265011
0.272532 0.280053 0.287573 0.295101 0.302622 0.310143 0.317664 0.325186 0.332714 0.340235
0.347757 0.355278 0.3628 0.370329 0.37785 0.385372 0.392894 0.400416 0.407945 0.415467
0.42299 0.430512 0.438034 0.445564 0.453087 0.460609 0.468132 0.475655 0.483185 0.490708
0.498231 0.505754 0.513277 0.520808 0.528331 0.535855 0.543378 0.550902 0 0.0026827
0.00536709 0.00805316 0.0107386 0.0139175 0.0161727 0.0184276 0.0206817 0.022935 0.0251893 0.026719
0.0282467 0.0297715 0.0312933 0.0336929 0.0357227 0.0377468 0.0397654 0.0417785 0.0437802 0.0474589
0.051139 0.0548204 0.0585083 0.062209 0.062228 0.0622471 0.0622661 0.0622851 0.0623043 0.0659678
0.0696413 0.0733248 0.0770186 0.0807222 0.0813125 0.0819028 0.0824931 0.0830835 0.0836595 0.0868185
0.08998 0.0931441 0.0963108 0.0994796 0.107 0.114522 0.122049 0.129581 0.137117 0.14466
0.152197 0.159734 0.16727 0.174807 0.182349 0.189885 0.19742 0.204955 0.21249 0.220031
0.227566 0.2351 0.242635 0.25017 0.257712 0.265247 0.272782 0.280317 0.287853 0.295395
0.302931 0.310466 0.318002 0.325538 0.333081 0.340617 0.348153 0.355689 0.363225 0.370768
0.378305 0.385841 0.393377 0.400914 0.408458 0.415995 0.423531 0.431068 0.438605 0.44615
0.453687 0.461224 0.468761 0.476299 0.483844 0.491381 0.498919 0.506456 0.513994 0.521539
0.529077 0.536615 0.544154 0.551692 0 0.00126444 0.00252926 0.00379476 0.00506106 0.00632818
0.0101157 0.0139115 0.017719 0.021533 0.0253295 0.0269133 0.0284869 0.0300537 0.0316133 0.0330042
0.0333297 0.0336549 0.0339797 0.0343043 0.0346288 0.036457 0.0382781 0.0400902 0.0418971 0.0436946
0.0454951 0.0473002 0.0491173 0.0509393 0.0527655 0.0529157 0.0530659 0.0532162 0.0533664 0.0535239
0.0552036 0.056886 0.0585711 0.0602592 0.0619498 0.0656456 0.0693582 0.0730889 0.0768303 0.0805808
0.0843443 0.088107 0.0918704 0.0956365 0.099405 0.106941 0.114479 0.122021 0.129567 0.137117
0.144682 0.152235 0.159788 0.167341 0.174893 0.182453 0.190005 0.197557 0.205108 0.212659
0.220217 0.227768 0.235319 0.24287 0.250421 0.257979 0.265531 0.273082 0.280633 0.288185
0.295744 0.303295 0.310847 0.318399 0.32595 0.33351 0.341062 0.348614 0.356166 0.363718
0.371278 0.37883 0.386382 0.393934 0.401487 0.409047 0.4166 0.424152 0.431705 0.439258
0.446818 0.454371 0.461924 0.469477 0.47703 0.484591 0.492144 0.499698 0.507251 0.514805
0.522366 0.529919 0.537473 0.545026 0.55258 0 0.00126544 0.0025314 0.00379788 0.00506486
0.00633239 0.00822677 0.0101235 0.0120228 0.0139248 0.015829 0.0177464 0.0196687 0.021592 0.0235185
0.0254572 0.0264284 0.0273968 0.0283608 0.0293204 0.0302797 0.030756 0.0312306 0.0317032 0.0321737
0.0326873 0.0331422 0.033595 0.0340458 0.0344947 0.034941 0.0358513 0.0367584 0.0376615 0.0385603
0.0394502 0.0403393 0.041227 0.0421139 0.0430006 0.0438878 0.0452335 0.046586 0.0479454 0.049296
0.0528824 0.0547113 0.0565539 0.0584079 0.0602686 0.06213 0.0640013 0.0658738 0.0677485 0.0696258
0.0715071 0.0733959 0.075279 0.0771584 0.0790396 0.0809259 0.0840421 0.0871623 0.0902841 0.0934075
0.0960564 0.0968289 0.0976016 0.0983744 0.0991474 0.0999205 0.107514 0.115109 0.122708 0.130311
0.137918 0.14555 0.153157 0.160759 0.168361 0.175963 0.183584 0.191183 0.198781 0.206378
0.213976 0.221592 0.229189 0.236785 0.244381 0.251978 0.259592 0.267189 0.274784 0.28238
0.289976 0.297589 0.305185 0.31278 0.320375 0.327971 0.335582 0.343178 0.350773 0.358368
0.365963 0.373573 0.381168 0.388763 0.396357 0.403952 0.411561 0.419156 0.42675 0.434344
0.441939 0.449547 0.457141 0.464735 0.472329 0.479923 0.487529 0.495123 0.502717 0.51031
0.517904 0.525509 0.533102 0.540695 0.548289 0.555882 0 0.00126279 0.00252625 0.00379074
0.00505641 0.00632326 0.00823329 0.0101453 0.0120611 0.0139802 0.0159046 0.0178219 0.0197521 0.0216952
0.0236509 0.0256291 0.026629 0.0276298 0.0286309 0.0296313 0.0306436 0.0308908 0.031138 0.0313849
0.0316298 0.0318194 0.0325703 0.0333087 0.034034 0.0347458 0.0354497 0.0358969 0.0363424 0.0367863
0.0372288 0.0376652 0.0381027 0.0385373 0.0389695 0.0394009 0.0398299 0.0402618 0.0406937 0.0411258
0.0415584 0.0419936 0.042429 0.0428639 0.0432991 0.0437352 0.0441735 0.0450504 0.0459367 0.0468333
0.0477415 0.0486669 0.0494194 0.0501707 0.0509244 0.0516815 0.0526168 0.0527652 0.0529137 0.0530623
0.053211 0.0533598 0.0543141 0.0552673 0.0562226 0.0571803 0.0581403 0.0591093 0.0600774 0.0610465
0.0620187 0.0629926 0.0649621 0.0669263 0.068885 0.0708481 0.0727943 0.0747257 0.0766726 0.0786352
0.0806018 0.0825724 0.0865324 0.0904838 0.0944093 0.0983199 0.102234 0.110059 0.117852 0.125575
0.13324 0.140908 0.148606 0.156282 0.163953 0.17162 0.179285 0.186966 0.194629 0.202291
0.209951 0.21761 0.225284 0.232942 0.240599 0.248256 0.255911 0.263581 0.271236 0.278891
0.286545 0.294199 0.301864 0.309518 0.31717 0.324822 0.332473 0.340135 0.347786 0.355437
0.363086 0.370736 0.378395 0.386044 0.393692 0.40134 0.408987 0.416643 0.42429 0.431937
0.439582 0.447228 0.454881 0.462526 0.47017 0.477814 0.485458 0.493108 0.500752 0.508394
0.516036 0.523677 0.531325 0.538966 0.546607 0.554247 0.561888 0 0.00126441 0.00252947
0.00379518 0.00506154 0.00632914 0.00824619 0.0101656 0.0120884 0.0140174 0.0159587 0.0169287 0.0179017
0.0188778 0.0198571 0.0208396 0.0218272 0.022823 0.0238277 0.0248414 0.0258655 0.0263832 0.0269025
0.0274256 0.0279523 0.0284853 0.0287751 0.0290662 0.0293597 0.0296559 0.0297539 0.0300544 0.0303563
0.030659 0.0309615 0.0312724 0.0313699 0.0314675 0.0315653 0.0316632 0.0317345 0.0317685 0.0318024
0.0318364 0.0318703 0.0319027 0.0320664 0.03223 0.0323934 0.0325567 0.0327213 0.0328997 0.0330778
0.0332553 0.03343 0.0335589 0.0336649 0.0337702 0.033875 0.0339788 0.0340841 0.0341952 0.0343048
0.0344129 0.03452 0.0346074 0.034661 0.0347143 0.0347673 0.03482 0.0348716 0.0349695 0.035067
0.035164 0.0352606 0.0353551 0.0354769 0.0355973 0.0357162 0.0358341 0.0360265 0.0361273 0.0362277
0.0363278 0.0364278 0.0365178 0.0366051 0.0366925 0.03678 0.0368673 0.0370265 0.0371479 0.0372691
0.0373901 0.0375109 0.0376301 0.0378491 0.0380665 0.0382839 0.0385019 0.0387163 0.0389345 0.039152
0.0393698 0.039588 0.039806 0.0400268 0.040246 0.0404654 0.0406851 0.0409055 0.0411257 0.0413454
0.0415653 0.041786 0.0420092 0.0422335 0.0424561 0.0426786 0.0429019 0.0431261 0.04347 0.0438157
0.0441671 0.0445245 0.0446893 0.0448417 0.0449945 0.0451475 0.0453009 0.0454553 0.0459418 0.0464213
0.0469009 0.0473763 0.0478719 0.0483882 0.048894 0.0494003 0.0499113 0.0504295 0.0505127 0.050596
0.0506795 0.0507632 0.0508449 0.0518404 0.0528781 0.0539601 0.055002 0.0560555 0.0572573 0.0584362
0.0596158 0.0608015 0.0619871 0.0624265 0.0628648 0.0633028 0.0637411 0.0642416 0.0650039 0.065759
0.0665105 0.0672639 0.0680162 0.0681887 0.0683609 0.0685323 0.068703 0.0688722 0.069885 0.0708962
0.0719056 0.0729132 0.0739164 0.0750685 0.0762408 0.0774169 0.0785945 0.0797745 0.0813393 0.0829053
0.0844787 0.0860538 0.0881308 0.0887585 0.0893839 0.0900071 0.090628 0.0912465 0.0957503 0.10023
0.104636 0.108952 0.113137 0.121307 0.129414 0.137449 0.145412 0.153296 0.161056 0.168817
0.176575 0.18433 0.192082 0.199831 0.207579 0.215326 0.22307 0.230813 0.238553 0.246292
0.25403 0.261767 0.269502 0.269535 0.269568 0.269601 0.269635 0.269668 0.277368 0.285069
0.292769 0.300469 0.308169 0.315895 0.323629 0.331362 0.339095 0.346829 0.354548 0.36228
0.370013 0.377746 0.385479 0.393191 0.400924 0.408656 0.416388 0.42412 0.431827 0.439558
0.447289 0.455021 0.462752 0.470453 0.478183 0.485913 0.493644 0.501374 0.50907 0.516799
0.524528 0.532256 0.539985 0.547675 0.555402 0.563129 0.570856 0.578583 0 0.00125411
0.00250916 0.00376553 0.00502334 0.00628271 0.00821402 0.010148 0.0120848 0.0140286 0.0159868 0.0169595
0.0179361 0.0189167 0.0199013 0.0208902 0.0218846 0.0228899 0.0239067 0.0249355 0.0259771 0.0265057
0.0270375 0.0275761 0.0281215 0.0286757 0.0292413 0.0298145 0.0304008 0.031001 0.0316278 0.0319467
0.0322655 0.0325851 0.0329056 0.0332407 0.0333106 0.0333804 0.0334502 0.0335201 0.0335773 0.0336555
0.0337322 0.033808 0.033883 0.0339459 0.0341171 0.034285 0.0344496 0.0346107 0.0347773 0.0349201
0.0350602 0.0351976 0.0353317 0.0354511 0.0355713 0.0356909 0.03581 0.0359275 0.0360392 0.0361566
0.0362709 0.0363823 0.0364931 0.0366396 0.0367466 0.0368534 0.03696 0.0370664 0.037164 0.0373573
0.0375507 0.0377473 0.0379469 0.0383638 0.0386018 0.0388408 0.0390776 0.0393123 0.0395422 0.0400054
0.0404627 0.0409165 0.0413672 0.0418131 0.0422701 0.0427125 0.0431582 0.043607 0.0440587 0.0445321
0.0449994 0.0454784 0.0459621 0.0464537 0.0473194 0.048205 0.0491047 0.0499828 0.0517911 0.0529139
0.0540387 0.055187 0.0563554 0.0575566 0.0588145 0.0600452 0.0612594 0.0624829 0.0637126 0.0646072
0.0654889 0.0663698 0.0672453 0.0684103 0.0687106 0.069011 0.0693116 0.0696128 0.0699144 0.0706645
0.0714161 0.0721674 0.0729199 0.0738407 0.0742986 0.0747564 0.0752139 0.0756702 0.0761246 0.0773658
0.0786113 0.0798644 0.0811186 0.0823721 0.0848609 0.0873536 0.0898161 0.0922352 0.094629 0.0994589
0.104242 0.108885 0.113392 0.117746 0.121676 0.125591 0.12949 0.133373 0.138408 0.14255
0.146647 0.150699 0.154706 0.15867 0.16643 0.174198 0.181964 0.189728 0.197492 0.205236
0.212998 0.22076 0.228521 0.236282 0.244015 0.251774 0.259533 0.267292 0.275051 0.282776
0.290534 0.298292 0.30605 0.313808 0.321525 0.329282 0.337039 0.344796 0.352553 0.360264
0.36802 0.375776 0.383532 0.391288 0.398993 0.406747 0.414502 0.422256 0.430011 0.43771
0.445463 0.453216 0.460969 0.468722 0.476416 0.484167 0.491918 0.499669 0.507421 0.51511
0.522859 0.530609 0.538358 0.546108 0.553791 0.561537 0.569283 0.57703 0.584777 0
0.00125903 0.00251874 0.00377913 0.00504093 0.00630439 0.00823307 0.0101647 0.0120992 0.0140412 0.0159973
0.0169702 0.0179471 0.0189282 0.0199135 0.0209031 0.0218975 0.0229026 0.0239193 0.0249479 0.0259894
0.0265184 0.0270503 0.0275879 0.0281323 0.0286859 0.0292489 0.0298196 0.0303998 0.0309925 0.0316148
0.031931 0.0322478 0.032565 0.0328823 0.0332121 0.0334503 0.0336872 0.0339222 0.034151 0.0342477
0.0343512 0.0344536 0.034555 0.0346552 0.0347581 0.0349596 0.0351542 0.0353423 0.0355243 0.0356791
0.0357574 0.0358353 0.0359125 0.0359889 0.0360662 0.0360678 0.0360694 0.0360711 0.0360727 0.0360743
0.0362184 0.0363612 0.0365027 0.0366428 0.0368473 0.0369235 0.0369996 0.0370755 0.0371514 0.0372234
0.0376827 0.0381469 0.0386244 0.0391096 0.0395244 0.0399871 0.0404387 0.0408889 0.0413411 0.0418008
0.0422763 0.0427423 0.0432052 0.0436703 0.0441445 0.0446359 0.0451181 0.0455952 0.0460775 0.0465734
0.0476048 0.0486582 0.0497228 0.0508064 0.0516582 0.0517117 0.0517652 0.0518186 0.0518719 0.0519253
0.0530497 0.0542 0.0553785 0.0565804 0.0578017 0.0590725 0.06032 0.0615472 0.0627913 0.0640294
0.0646518 0.0652645 0.0658745 0.0664831 0.0670941 0.0677193 0.0683348 0.0689416 0.0695494 0.0701633
0.0714124 0.0726715 0.0739276 0.0751787 0.0764194 0.0772273 0.0780274 0.0788285 0.0796315 0.0805342
0.0809622 0.0813904 0.081819 0.0822483 0.0826785 0.0851878 0.0876819 0.0901609 0.0925822 0.0949742
0.0997335 0.104445 0.109045 0.113531 0.117875 0.125067 0.132163 0.139131 0.145975 0.159107
0.163896 0.168684 0.17347 0.178255 0.183158 0.186096 0.189033 0.19197 0.194908 0.197844
0.205583 0.213325 0.221067 0.228808 0.236548 0.244277 0.252016 0.259756 0.267495 0.275234
0.282954 0.290692 0.298431 0.30617 0.313908 0.321621 0.329359 0.337097 0.344835 0.352573
0.36028 0.368017 0.375754 0.383491 0.391228 0.398929 0.406665 0.414401 0.422137 0.429873
0.437569 0.445303 0.453038 0.460773 0.468509 0.476198 0.483932 0.491665 0.499399 0.507133
0.514818 0.52255 0.530282 0.538014 0.545746 0.553426 0.561155 0.568884 0.576614 0.584345
0 0.00127992 0.00256048 0.00384229 0.00512559 0.00641037 0.0083168 0.0102258 0.0121374 0.0140556
0.0159859 0.0169579 0.017933 0.0189115 0.0198934 0.0208788 0.021873 0.0228762 0.0238892 0.0249122
0.0259474 0.0263903 0.0268347 0.0272826 0.0277339 0.0278574 0.0280061 0.0281551 0.0283042 0.0284534
0.0286029 0.0291463 0.029694 0.0302489 0.0308126 0.0313972 0.0314725 0.0315478 0.031623 0.0316982
0.0317635 0.0319806 0.0321976 0.0324145 0.0326312 0.0328514 0.0329314 0.0330113 0.0330911 0.0331707
0.0332397 0.0334506 0.0336606 0.0338696 0.0340753 0.0342874 0.0343499 0.034412 0.0344736 0.0345349
0.034588 0.0345932 0.0345985 0.0346037 0.0346089 0.0346141 0.0348294 0.0350401 0.0352464 0.0354452
0.0356356 0.0356573 0.035679 0.0357006 0.0357222 0.0357443 0.0358462 0.0359471 0.036047 0.0361482
0.0362928 0.0363864 0.0364794 0.0365718 0.0366632 0.0367523 0.0368561 0.0369592 0.0370617 0.0371645
0.0373124 0.0374116 0.0375106 0.0376096 0.0377095 0.0378069 0.0380188 0.0382288 0.0384381 0.0386468
0.0388589 0.0390788 0.0392942 0.0395054 0.0397165 0.0399304 0.0401464 0.0403608 0.0405743 0.0407884
0.0410049 0.0412258 0.0414432 0.0416595 0.041876 0.0420935 0.0423123 0.0425296 0.0427467 0.0429643
0.0431831 0.043628 0.0440733 0.0445218 0.0449737 0.0454337 0.0459125 0.0463792 0.0468379 0.0472996
0.0477749 0.0482575 0.0487382 0.0492188 0.0497032 0.0501956 0.0512121 0.0522343 0.0532682 0.0543556
0.0554607 0.0558224 0.0561845 0.0565477 0.0569125 0.0572976 0.0580917 0.0588853 0.0596785 0.0604755
0.0612805 0.0624807 0.0636564 0.0648385 0.0660358 0.0672286 0.0684559 0.069659 0.0708391 0.072013
0.0731791 0.0736431 0.0741062 0.0745698 0.0750339 0.0754889 0.0758128 0.076137 0.0764613 0.0767858
0.0771192 0.0775041 0.0778893 0.0782748 0.0786606 0.0790465 0.0813926 0.0837404 0.0860878 0.0884049
0.0906941 0.0952038 0.099766 0.104236 0.108561 0.112779 0.121087 0.129366 0.137583 0.145628
0.153503 0.161245 0.168986 0.176723 0.184457 0.192189 0.199916 0.207643 0.215369 0.223093
0.230815 0.237933 0.245052 0.252169 0.259286 0.266417 0.267014 0.267611 0.268208 0.268804
0.269401 0.277115 0.284829 0.292543 0.300257 0.307971 0.315678 0.323392 0.331106 0.33882
0.346534 0.354234 0.361948 0.369661 0.377375 0.385089 0.392784 0.400496 0.408209 0.415923
0.423636 0.431325 0.439037 0.44675 0.454462 0.462174 0.469859 0.47757 0.485281 0.492993
0.500704 0.508384 0.516094 0.523804 0.531515 0.539225 0.546899 0.554607 0.562316 0.570024
0.577733 0 0.00127753 0.00255577 0.00383512 0.00511576 0.00639767 0.00829925 0.0102028 0.0121091
0.0140203 0.0159396 0.0169038 0.0178698 0.0188378 0.019808 0.0207805 0.0217543 0.022733 0.0237171
0.0247057 0.0256981 0.0266889 0.027686 0.0286913 0.0296919 0.0307004 0.0307757 0.030851 0.0309263
0.0310014 0.0310708 0.0319931 0.0328958 0.0337781 0.0346392 0.0354977 0.0359457 0.0363914 0.036835
0.0372776 0.0377147 0.0381533 0.0385894 0.0390247 0.0394593 0.039888 0.0403211 0.0407544 0.0411879
0.0416218 0.0420562 0.0424924 0.0429275 0.0433635 0.0438004 0.0442392 0.0451173 0.046004 0.0468972
0.0477979 0.0487236 0.0496707 0.0506103 0.0515431 0.0524828 0.0534321 0.0541662 0.0549056 0.0556474
0.0563909 0.0575348 0.0576852 0.0578358 0.0579865 0.0581373 0.0582881 0.059272 0.0602556 0.0612394
0.062223 0.0632054 0.0652059 0.0671931 0.0691697 0.0711559 0.0731398 0.0750985 0.0770837 0.0790837
0.0810876 0.0830932 0.0871058 0.0911357 0.0951338 0.0990866 0.103033 0.105929 0.108829 0.111738
0.114639 0.118061 0.122984 0.127879 0.132748 0.13759 0.142405 0.150115 0.157828 0.165538
0.173245 0.180951 0.188644 0.196345 0.204044 0.211742 0.219439 0.227125 0.234818 0.242511
0.250202 0.257892 0.265574 0.273262 0.280949 0.288635 0.29632 0.303999 0.311681 0.319363
0.327045 0.334725 0.342401 0.350079 0.357757 0.365434 0.37311 0.380782 0.388457 0.39613
0.403803 0.411476 0.419145 0.426815 0.434485 0.442155 0.449823 0.45749 0.465157 0.472823
0.480489 0.488154 0.495818 0.503481 0.511144 0.518807 0.526468 0.534128 0.541789 0.549448
0.557108 0.564767 0 0.00127409 0.0025488 0.00382396 0.00510035 0.00637796 0.00827386 0.0101719
0.0120722 0.0139756 0.015883 0.0177923 0.0197068 0.0216263 0.0235504 0.0254824 0.0264533 0.0274212
0.0283841 0.0293422 0.0299606 0.0309788 0.0319894 0.0329895 0.0339794 0.0349576 0.0358665 0.0367722
0.0376737 0.0385723 0.0394619 0.0403525 0.0412417 0.0421297 0.0430168 0.0439031 0.0456803 0.0474748
0.0492839 0.0511026 0.0529377 0.0538071 0.0546777 0.0555504 0.0564253 0.0577863 0.058669 0.0595534
0.0604396 0.0613276 0.0622171 0.0640927 0.0659712 0.0678525 0.0697364 0.0716223 0.0735178 0.0754056
0.0772943 0.0791844 0.0810756 0.0848717 0.088667 0.0924668 0.0962711 0.100089 0.107788 0.11549
0.123147 0.130766 0.138401 0.14605 0.153696 0.161341 0.168984 0.176625 0.184272 0.191914
0.199555 0.207195 0.214833 0.222474 0.230112 0.237749 0.245385 0.25302 0.260659 0.268294
0.275929 0.283562 0.291195 0.298831 0.306464 0.314096 0.321728 0.329358 0.336992 0.344623
0.352253 0.359882 0.367511 0.375142 0.382771 0.390399 0.398026 0.405653 0.413282 0.420908
0.428534 0.43616 0.443784 0.451411 0.459036 0.46666 0.474283 0.481906 0.489531 0.497154
0.504776 0.512397 0.520018 0.52764 0.535261 0.542881 0.550501 0.55812 0 0.00127142
0.00254321 0.00381554 0.00508846 0.00636199 0.0101414 0.0139323 0.0177224 0.0215092 0.0252998 0.0257903
0.0262797 0.0267682 0.0272558 0.0276849 0.0290748 0.0304595 0.031839 0.0332134 0.0345852 0.0364263
0.038258 0.0400728 0.0418835 0.0436891 0.0455003 0.047309 0.049119 0.0509377 0.0527677 0.0546039
0.0564416 0.058282 0.0601254 0.0619713 0.0656734 0.0693895 0.0731215 0.0768685 0.0806192 0.0843896
0.0881582 0.0919271 0.0956979 0.0994712 0.107001 0.11453 0.122063 0.129611 0.137174 0.144753
0.152328 0.159905 0.167483 0.175059 0.18264 0.190217 0.197795 0.205372 0.212947 0.220527