# vtk DataFile Version 2.0
sampleSurface
ASCII
DATASET POLYDATA
POINTS 2021 float
-0.500032 0 0.11501 -0.499951 3.38813e-21 0.0392727 -0.789037 8.47033e-21 0.120673 -0.500013 -1.35525e-20
0.193965 1.00003 0 0.0485099 1.00003 0 0.0478584 0.475202 0 0.0353615
0.250044 1.41878e-20 0.0305359 0.2506 -5.42101e-20 0.117067 0.251301 0 0.203885 0.364989
0 0.203772 1.75002 0 0.113255 1.75002 0 0.0564279 2.50001 6.89146e-18
0.059229 2.21354 0 0.250758 2.50001 0 0.252875 3.25001 -3.47927e-17 0.0598775
3.25001 -1.69407e-21 0.253888 4.00001 5.60566e-18 0.0599857 4 0 0.253986 4.75
-1.79088e-17 0.0599988 4.75 8.47033e-22 0.253998 5.5 -2.79246e-17 0.0599999 5.5 -4.23516e-22
0.253999 6.25 1.01187e-17 0.06 6.25 0 0.254 7 2.93732e-17 0.06
7 0 0.254 7.75 -2.65294e-17 0.06 7.75 0 0.254 8.5
1.8923e-17 0.06 8.5 0 0.254 9.25 -2.88552e-17 0.06 9.25 -5.29396e-23
0.254 10 -2.64698e-23 0.254 10 0 0.06 -4.24997 0 0.0599042
-5 0 0.0599861 -5 0 0.253986 -4.24997 0 0.253912 -3.49995
0 0.0593815 -3.49994 0 0.253441 -2.74993 0 0.0570188 -2.74991 0
0.251316 -1.99991 0 0.0492276 -1.99987 0 0.242776 -1.24992 -1.69407e-21 0.03
-1.24985 1.23328e-17 0.222327 -1.24989 3.38813e-21 0.125756 -0.874924 2.08116e-17 0.03 -0.874929
0 0.122356 -0.124951 -8.47033e-22 0.03 -0.499941 0 0.03 -0.124922 -8.47033e-22
0.0385291 1.00021 0 0.231242 0.625368 0 0.203537 0.25004 -2.11758e-22 0.03
1.75003 0 0.247334 1.92873 1.69407e-21 0.441438 2.50001 0 0.447397 3.25
-1.69407e-21 0.447898 4 0 0.447986 4.75 0 0.447997 5.5 -4.23516e-22
0.447999 6.25 4.23516e-22 0.447999 7 0 0.448 7.75 -1.05879e-22 0.448
8.5 0 0.448 9.25 0 0.448 10 -2.64698e-23 0.448 -5
-8.47033e-22 0.447985 -4.24997 0 0.447919 -3.49993 0 0.4475 -2.74988 0
0.445609 -1.9998 6.77626e-21 0.437758 -1.24969 1.61411e-17 0.417681 -1.24976 -6.77626e-21 0.31973
-0.875161 7.70461e-18 0.216228 -0.875403 0 0.312476 -0.499924 -8.74138e-19 0.250039 -0.312433
0 0.250037 -0.312436 0 0.200025 -0.499924 0 0.200026 0.250062 3.38813e-21
0.24921 0.250039 -1.69407e-21 0.250046 0.250032 0 0.300069 0.437526 3.05948e-18 0.300066
0.625026 0 0.30005 1.00072 -8.23994e-18 0.326497 1.00196 0 0.423 1.75013
0 0.439575 1.75013 1.77877e-20 0.448245 1.00135 0 0.537141 1.00002 0
0.61834 1.74999 2.71051e-20 0.633055 2.49999 -3.38813e-21 0.641448 3.25 0 0.641907
4 -1.69407e-21 0.641985 4.75 -8.47033e-22 0.641996 5.5 -4.23516e-22 0.641998 6.25
0 0.641999 7 0 0.641999 7.75 0 0.642 8.5 5.29396e-23
0.642 9.25 -5.29396e-23 0.642 10 0 0.642 -5 0 0.641985
-4.24997 -1.69407e-21 0.641926 -3.49993 0 0.641557 -2.74988 0 0.639897 -1.99989
6.77626e-21 0.63382 -1.25099 2.55465e-18 0.614606 -1.25 -2.71051e-20 0.515981 -0.878244 0
0.50789 -0.875961 2.71051e-20 0.459694 -0.875609 0 0.410432 -0.498432 0 0.400603
-0.498071 -1.70762e-18 0.413126 -0.450805 0 0.413349 -0.45095 0 0.400955 0.250009
1.89735e-19 0.412703 0.25 2.71051e-20 0.425212 0.296872 1.00289e-18 0.425187 0.343754 -2.71051e-20
0.425153 0.343763 0 0.400146 0.250006 0 0.400175 1.00162 1.41488e-17 0.520353
-2 4.23516e-22 0.820145 -2.09502 -2.11758e-22 0.830091 -2 0 0.829497 -1.25123
0 0.813251 -1.25126 0 0.713737 -1.25101 6.77626e-21 0.62198 1.00059 0
0.714169 1.00094 0 0.809205 1.75018 0 0.82775 2.5 0 0.835521
3.25 0 0.835917 4 -1.69407e-21 0.835986 4.75 -8.47033e-22 0.835996 5.5
0 0.835998 6.25 0 0.835999 7 0 0.835999 7.75 0
0.836 8.5 0 0.836 9.25 0 0.836 10 0 0.836
-5 -8.47033e-22 0.835986 -4.24997 0 0.835935 -3.49995 0 0.835616 -2.74991
0 0.83419 -0.970118 0 0.703382 -0.87455 0 0.699864 -0.874264 -2.71051e-20
0.649852 -0.874033 -2.71051e-20 0.599873 -0.49698 0 0.599585 -0.497345 -9.21572e-19 0.612046
-0.450014 0 0.611892 -0.44938 2.71051e-20 0.599454 -2.00002 0 0.84097 -1.84639
-3.38813e-21 1.02215 -1.25185 0 1.01276 -0.896512 -3.38813e-21 0.900668 -0.908183 6.77626e-21
0.801076 -0.904022 -1.86347e-20 1.00093 0.624925 0 0.799916 0.249931 0 0.799891
0.249978 0 0.899916 0.249997 0 0.999939 0.999987 0 0.999957 1.75061
-2.1684e-19 1.02409 2.50003 0 1.0296 3.25 -1.69407e-21 1.02993 4 0
1.02999 4.75 0 1.03 5.5 0 1.03 6.25 2.11758e-22 1.03
7 0 1.03 7.75 0 1.03 8.5 5.29396e-23 1.03 9.25
0 1.03 10 0 1.03 -5 0 1.02999 -4.24998 0
1.02994 -3.49996 -8.47033e-22 1.02968 -2.74996 0 1.02849 -2.00026 0 1.02458
-0.87482 0 0.799893 -0.87491 0 0.899919 -0.49993 0 0.799862 -0.499958
7.6233e-19 0.849889 -0.312476 0 0.849885 -0.312472 0 0.799853 -1.25001 8.04681e-21
1.19601 -0.499979 5.29396e-23 1.10737 -0.731886 2.11758e-22 1.19997 -0.499981 0 1.19997
-0.124987 0 0.999933 -0.477759 -5.29396e-23 0.999933 -0.487556 -1.45584e-22 1.09995 0.250008
0 1.19997 1 0 1.19997 1.7507 0 1.22203 2.50003 -1.35525e-20
1.22368 3.25 0 1.22394 4 0 1.22399 4.75 4.23516e-22 1.224
5.5 0 1.224 6.25 2.11758e-22 1.224 7 0 1.224 7.75
1.05879e-22 1.224 8.5 0 1.224 9.25 0 1.224 10 2.64698e-23
1.224 -5 4.23516e-22 1.22399 -4.24999 -4.23516e-22 1.22395 -3.49998 0 1.22374
-2.75001 0 1.22279 -2.00077 0 1.21965 -1.24997 4.23516e-22 1.19997 -0.499969
-5.29396e-23 0.999933 -0.874942 0 0.999936 -0.499979 -1.32349e-23 1.09995 -2.75001 0
1.36967 -3.18711 4.23516e-22 1.41751 -2.75001 4.23516e-22 1.4171 -2.00072 3.38813e-21 1.29692
-2.00065 0 1.41474 -1.25823 6.35275e-21 1.40014 -0.980416 0 1.39998 -0.499986
0 1.39998 0.250009 0 1.39998 1 0 1.39998 1.75054 0
1.41682 2.50002 -1.35525e-20 1.41776 3.25 0 1.41796 4 4.23516e-22 1.41799
4.75 0 1.418 5.5 0 1.418 6.25 0 1.418 7
0 1.418 7.75 0 1.418 8.5 0 1.418 9.25 0
1.418 10 0 1.418 -5 0 1.41799 -4.24999 0 1.41797
-3.49999 -4.23516e-22 1.41781 -1.24998 0 1.39998 -2.80392 1.32349e-23 1.61143 -2.75
-1.32349e-23 1.6114 -2.0003 0 1.60983 -1.25396 2.64698e-23 1.60004 -1.12789 2.64698e-23
1.59999 -0.49999 1.05879e-22 1.59999 0.250008 0 1.59999 1.00001 4.23516e-22 1.59999
1.75038 0 1.61122 2.50002 0 1.61184 3.25 -4.23516e-22 1.61197 4
-4.23516e-22 1.61199 4.75 0 1.612 5.5 0 1.612 6.25 0
1.612 7 0 1.612 7.75 5.29396e-23 1.612 8.5 2.64698e-23 1.612
9.25 -1.32349e-23 1.612 10 -1.32349e-23 1.612 -5 0 1.61199 -4.24999
0 1.61198 -3.49999 0 1.61187 -1.24999 0 1.59999 -2.75 -1.32349e-23
1.63714 -2.64195 -2.11758e-22 1.80559 -2.00012 -8.47033e-22 1.80492 -1.25741 0 1.80004
-1.19082 -7.94093e-23 1.8 -0.499992 1.05879e-22 1.79999 0.250006 2.11758e-22 1.79999 1
0 1.8 1.75023 0 1.80561 2.50001 3.38813e-21 1.80592 3.25 0
1.80599 4 0 1.806 4.75 2.11758e-22 1.806 5.5 0 1.806
6.25 0 1.806 7 0 1.806 7.75 0 1.806 8.5
2.64698e-23 1.806 9.25 0 1.806 10 0 1.806 -5 0
1.806 -4.25 -2.11758e-22 1.80599 -3.49999 0 1.80594 -2.75 -1.05879e-22 1.8057
-1.24999 0 1.8 -2 -4.76456e-22 1.98532 -1.20969 -1.65436e-23 2 -0.499993
0 2 0.250006 0 2 1 0 2 1.75 0
2 2.5 0 2 3.25 0 2 4 0 2
4.75 -1.05879e-22 2 5.5 0 2 6.25 0 2 7
5.29396e-23 2 7.75 0 2 8.5 0 2 9.25 0
2 10 -1.32349e-23 2 -5 2.21817e-18 2 -4.25 1.05879e-22 2
-3.49999 0 2 -2.74999 0 2 -1.99999 -5.29396e-23 2 -1.24999
3.30872e-24 2 0.0956945 -5.42101e-20 0.203879 0.0632748 0 0.203876 0.0625511 0
0.250042 -0.403589 6.77626e-21 0.40138 -0.405779 7.7927e-19 0.38799 -0.406379 -6.77626e-21 0.375196
-0.499567 -1.35525e-20 0.375265 0.250006 -6.50521e-19 0.375144 0.156247 0 0.375155 0.156237
9.41901e-19 0.400212 0.203129 0 0.400201 0.249796 0 0.59991 0.249852 -1.0842e-19
0.587433 0.202953 0 0.587417 0.202888 6.50521e-19 0.599901 0.625121 -6.77626e-21 0.499953
0.717439 6.77626e-21 0.504955 0.625095 6.77626e-21 0.475379 0.343596 1.0842e-19 0.599918 0.343639
0 0.574939 0.296781 0 0.574964 0.249926 0 0.574977 0.62499 -4.2826e-18
0.549927 0.624917 4.55365e-18 0.599925 0.203133 0 0.412725 -0.449046 0 0.587135
-0.496581 5.42101e-20 0.587161 0.625036 -9.32414e-18 0.40006 0.625067 1.13164e-18 0.450032 0.249704
0 0.624881 0.155871 0 0.599866 0.155839 1.95156e-18 0.624853 0.249886 1.35525e-20
0.749873 0.062411 0 0.749846 0.0624478 -4.26227e-18 0.799869 -0.312472 0 0.749804
-0.499901 -3.38813e-21 0.749824 -0.691227 0 0.30453 -0.499912 3.02221e-18 0.300065 -0.875784
-3.11708e-18 0.361353 -0.592465 -2.71051e-20 0.40036 -0.499854 0 0.350135 -0.687111 1.35525e-20
0.350117 -0.68656 -2.71051e-20 0.40021 0.437526 -1.35525e-20 0.400108 0.437522 6.77626e-21 0.350086
0.250015 -2.51399e-18 0.35011 0.625027 3.38813e-21 0.350064 -0.592287 0 0.425286 -0.498048
0 0.425444 -0.873902 5.42101e-18 0.54992 -0.496663 0 0.574746 -0.591532 0
0.574798 -0.591729 0 0.599734 -0.149108 0 0.406489 -0.149477 -5.29396e-23 0.403592
-0.149678 0 0.406489 -0.451876 -2.1684e-18 0.499977 -0.451579 0 0.487563 -0.498366
0 0.487552 -0.498515 -1.0842e-19 0.499993 0.437553 0 0.450075 0.437532 -6.07153e-18
0.425113 0.254621 -1.25361e-19 0.496697 0.26485 -5.42101e-20 0.498023 0.264831 0 0.496529
0.254636 -2.30393e-19 0.49668 0.570241 0 0.499932 0.437665 -2.71051e-20 0.474991 0.437859
-2.71051e-20 0.49988 0.437372 -1.0842e-19 0.599915 0.249722 3.25261e-19 0.649874 0.43732 -5.42101e-20
0.649899 0.624872 0 0.649914 0.624883 -3.95734e-18 0.699913 0.43734 6.83047e-18 0.699894
0.249817 0 0.699869 -0.592227 0 0.624743 -0.498071 -2.71051e-20 0.624658 -0.499769
6.77626e-21 0.69979 -0.687025 0 0.699824 -0.150854 -1.03677e-18 0.599678 -0.151059 -6.77626e-21
0.605522 -0.127339 6.77626e-21 0.605681 -0.127867 0 0.599582 -0.406139 -4.40457e-20 0.699754
-0.406113 0 0.674749 -0.499634 0 0.674774 -0.18433 -4.23516e-22 0.674527 -0.163626
-4.23516e-22 0.678958 -0.165125 0 0.674537 -0.171868 4.23516e-22 0.674524 -0.14924 3.34737e-19
0.400169 -0.125737 0 0.400165 -0.12551 0 0.393854 -0.149076 -2.11758e-22 0.393877
-0.499925 -2.61564e-18 0.325088 -0.406241 0 0.325087 -0.4062 0 0.300069 -0.124901
0 0.300062 -0.218633 -3.27294e-18 0.299673 -0.218596 1.35525e-20 0.324664 -0.124851 0
0.325085 -0.126061 7.86047e-19 0.406473 -0.0785222 1.30782e-18 0.400166 -0.126118 3.38813e-21 0.41275
-0.0785648 0 0.412729 0.240678 1.0842e-18 0.500153 0.252614 -2.1684e-19 0.498317 0.252386
1.0842e-19 0.496231 0.241035 0 0.496114 0.228892 -1.35525e-20 0.496204 0.228835 6.77626e-21
0.498715 0.229819 2.71051e-20 0.500074 0.25248 0 0.499935 0.240657 -1.6263e-19 0.500957
0.264863 0 0.500154 0.264689 0 0.500951 0.437443 0 0.549896 0.437406
[...]
POINT_DATA 2021
FIELD attributes 2
p 1 2021 float
2.01472 1.44247 2.37323 4.36929 0.0580789 0.0559648 -4.20569 -6.04424 -7.69319 -6.16905 -4.32402
0.495796 0.46366 0.111485 0.326234 0.174581 0.00327108 0.0270382 0.00538126 0.0142736 0.00943628
0.0154014 0.00462132 0.00973319 -2.20377e-05 0.00432102 -0.00155814 0.0021494 -0.00117537 0.00201718 -0.000525143
0.00207543 0.000530431 0.00330805 0 0 0.6153 0.610844 0.610693 0.615015 0.636191
0.635296 0.706184 0.70305 0.928352 0.925052 1.64305 1.76458 1.78003 2.23882 2.4796
-4.05455 1.37234 -4.10732 0.650096 -0.112105 -6.03402 0.571592 0.441806 0.189296 0.0289483
0.00706088 0.00920063 0.00536066 0.000823782 -0.000789024 -0.000388712 -0.000466248 0.00263367 0 0.61026
0.614245 0.632881 0.694011 0.903913 1.95837 2.03127 3.13127 3.87581 7.33242 -3.28875
-1.04388 4.58938 -5.73634 -5.72852 -2.2709 0.336536 0.825422 1.02959 0.924834 0.520739
0.516544 0.846726 0.880289 0.426976 0.166821 0.0226873 0.00202837 0.0062428 0.0041157 0.000220484
-0.0011262 -0.00053225 -0.000331167 0.00282567 0 0.60957 0.613055 0.629243 0.681315 0.86343
1.85197 2.13802 5.13713 5.59154 4.82896 32.585 36.4698 52.0416 45.9982 4.75519
4.90365 3.39099 3.42305 2.68486 4.08285 0.839785 0.809343 0.788863 0.806627 1.39805
1.78722 1.84718 0.992089 0.482208 0.349387 0.127388 0.0133794 0.000328618 0.00681121 0.00602088
0.00246271 0.00106435 0.00141869 0.00203376 0.00348635 0 0.608693 0.611573 0.624808 0.666428
3.25378 3.75232 4.68469 4.76284 34.3628 32.7009 44.6252 50.7666 0.802793 0.782474
0.940988 1.70373 2.62856 1.14319 0.0802651 -4.88052 -5.30203 -2.749 -0.228704 0.190826
0.0731149 -0.00561665 -0.010972 -0.00101577 0.000808221 -0.00126738 -0.00179543 -0.000874261 0.000273889 0.00126841
0 0.607724 0.60995 0.619978 0.650439 0.741427 2.74814 1.73349 5.18927 3.29335
0.55738 -0.676594 0.698949 0.31174 0.313652 0.143527 -1.70978 0.673978 0.282212 -0.974391
-0.394086 0.0977587 0.0646467 -0.00302366 -0.0109732 -0.0011199 0.00138212 -0.000440457 -0.00095753 -6.95197e-05
0.0010207 0.00154781 0 0.606758 0.60834 0.615128 0.634304 0.677916 0.693711 0.824062
1.16009 0.325223 0.623071 0.61435 0.619444 0.657651 0.626744 0.56767 0.384848 0.0601839
-0.564445 -0.377875 0.0460415 0.059167 -0.0044503 -0.0152145 -0.00446102 -0.000837308 -0.00216425 -0.00243253
-0.00137687 -0.000169555 0.000428719 0 0.605895 0.606883 0.610704 0.567014 0.607665 0.607704
0.59165 0.496499 0.427918 0.0778457 -0.435363 -0.348982 -0.00113032 0.0479342 -0.00800699 -0.0188632
-0.00654019 -0.00182313 -0.00275103 -0.00283734 -0.00168421 -0.00041379 0.000251882 0 0.605216 0.605711
0.607159 0.495993 0.606725 0.596136 0.571323 0.458836 0.428478 0.087182 -0.365074 -0.333039
-0.0276395 0.0428493 -0.00840728 -0.0199445 -0.0072889 -0.00223466 -0.00306703 -0.00309006 -0.0018908 -0.000595266
0.000114971 0 0.604778 0.604929 0.604817 0.600313 0.457711 0.565051 0.426328 0.0902771
-0.342694 -0.327884 -0.0359302 0.0413196 -0.00850304 -0.0203617 -0.00764697 -0.0024631 -0.00322618 -0.00318727
-0.00194547 -0.000630655 0.000100454 7.5643e-05 0.604624 0.604647 0.603973 0.597793 0.564541 0.445411
-10.2885 -11.1462 -11.7986 70.5033 60.0964 43.9103 29.6856 2.92055 1.68551 4.39604
5.05581 4.15888 4.57336 6.21162 5.42838 2.0205 1.73086 2.13555 2.96938 3.67728
3.37498 3.98564 2.24165 1.90946 6.04082 56.2556 39.4504 1.93025 2.25389 3.66243
4.77461 2.1907 -4.52709 -11.206 -9.84543 -3.19355 8.46478 7.00866 11.9127 4.75266
17.4703 20.8314 9.14167 10.5219 2.57522 1.49557 0.988049 1.65259 19.7371 36.9258
5.61518 39.6507 20.3342 18.8241 -58.7409 -58.516 -58.7379 68.4729 68.3863 47.5719
44.8055 3.39501 3.10022 -5.01727 0.33768 0.187137 -5.06689 2.58156 3.96437 3.93124
2.85948 1.84579 1.75939 1.62362 0.948116 0.7605 -1.35578 17.0096 28.1095 13.2973
7.27928 -56.5937 -56.3799 -58.8166 -58.7391 13.8764 19.1129 18.4863 -46.3201 -42.7595
-44.4393 -45.1771 -58.254 -57.5229 -57.5143 -57.6588 16.6229 15.901 12.0184 -29.3701
-27.9627 -45.364 -37.0763 -58.8605 -46.0071 -58.6954 -48.1359 11.0039 4.29325 10.5097
11.8563 9.10287 9.37829 9.66628 4.51502 11.1271 0.89518 0.724759 3.71823 3.47414
4.05629 4.31525 47.7639 68.3547 -58.8761 -56.5244 6.50278 11.1346 -51.4207 -52.7161
-58.4708 4.46157 6.29346 6.44819 6.47871 -31.443 -40.0523 -49.479 -29.8146 64.4215
60.8069 41.6682 41.4166 -44.0748 -56.0444 -11.5376 -8.61083 -0.459152 -24.5596 -42.4755
42.991 44.3172 64.3148 66.4867 -51.7742 -49.9275 -50.7049 0.340007 -9.6554 -12.7053
-11.6891 -21.6746 -24.8624 -57.8669 44.0506 21.8592 22.1527 11.7072 12.0243 12.197
13.1485 22.0293 44.5135 10.801 12.4644 11.9049 13.2453 -58.6956 -58.6843 -58.1482
-58.1354 -57.4975 -56.8811 -56.5262 45.8307 66.8433 -58.3596 -58.5996 -59.0042 -58.269
-29.8589 -35.0784 -32.8004 -13.7774 -1.61985 -4.94024 -50.6202 -50.2765 -58.0296 -13.1814
0.101082 0.0262878 -13.4085 -58.3138 -56.8194 -51.3092 -12.5292 -10.2621 -3.7515 1.52104
-7.32951 -5.54573 -18.5737 -38.3122 -41.4228 -36.3234 -52.1911 -53.2169 -52.9478 -4.06037
-17.4673 -18.2138 -4.6757 -56.069 -51.948 -56.0885 -3.5059 -9.22029 -16.5225 -11.6898
67.5398 46.8772 -54.2772 -54.4448 -56.8339 -56.7081 -56.2294 -53.7562 -57.1233 -53.1381
-55.9863 -58.9597 -59.0884 -59.1324 -32.1621 -77.1225 -96.1696 -101.13 -103.393 -102.956
-48.6701 -50.207 -54.2341 -48.2846 -49.8783 -98.0706 -99.3848 -71.2871 -34.2983 -58.464
-59.2725 -58.9575 -56.3013 -57.1876 -57.295 -57.2199 -57.6131 7.10383 6.0159 8.91248
-56.0439 -55.7476 -55.9644 -55.4481 -55.5663 -55.8776 -56.291 -55.1669 -55.1512 2.03725
1.83029 0.708874 1.21013 4.25192 4.61793 1.38307 -55.8828 -56.3337 -56.987 5.78944
6.62326 2.78127 0.884521 3.13829 -32.1271 -38.1341 -37.3981 -31.7461 -54.6167 -55.1036
-58.0002 -57.68 -55.0026 -55.8275 -38.9509 -43.3088 -43.1002 -36.9511 -46.1141 -50.1623
-53.3108 -53.4605 -52.2907 123.582 131.44 146.785 146.873 -58.1419 -56.2018 -56.4804
-57.8538 -57.7192 4.39618 2.11573 3.00274 4.59506 -9.72266 -3.90175 -5.86145 -8.90195
-11.7881 -39.0987 -36.8822 -25.5817 -27.3277 -32.1454 -39.1194 -24.9405 -24.9533 31.098
41.2755 52.1195 37.9307 23.0754 19.2344 34.2307 26.1309 0.669932 0.828177 1.98795
34.0987 24.9195 17.1154 22.2052 2.88942 3.8282 4.47787 4.5885 3.74369 6.69186
6.8047 4.64665 -9.36372 -8.25075 -1.37939 -10.2422 14.6903 9.1499 10.8255 -54.687
-56.9094 -57.0401 -54.8815 -82.7423 -81.461 -84.7021 -47.9585 -12.7004 -18.347 -27.6178
-56.0241 -52.8562 -55.3887 -56.4517 -73.9877 -73.7037 -58.3052 -59.5963 -49.5665 -47.9485
-50.214 -50.3751 3.75329 3.81185 -0.614831 5.99316 5.6496 4.66474 5.33564 5.72605
6.13591 -54.1355 -53.7006 -68.8481 -68.0599 79.027 94.1252 85.726 112.126 106.437
88.8585 90.1717 161.858 164.19 153.372 121.644 98.4239 104.362 97.3207 117.659
-12.9275 -26.9929 -31.3165 -5.88793 -26.1695 -52.1035 -41.7497 -6.36172 93.7191 101.219
86.8039 78.2718 96.7017 88.3967 107.605 148.461 158.215 167.405 165.143 106.63
102.905 159.631 -32.6083 -7.9593 -38.2929 -28.5072 -47.696 140.215 140.085 115.61
110.59 110.253 115.516 139.61 138.994 108.143 167.237 170.842 172.013 172.303
173.714 186.65 186.839 174.82 173.272 -33.0441 -40.1491 -32.9981 -56.4429 -50.8407
-42.7051 -41.9568 -40.6941 -25.6264 2.73232 -2.6455 -0.707314 173.392 175.336 187.191
172.363 186.507 187.15 175.223 172.168 179.596 181.76 170.11 168.878 179.894
167.879 171.095 182.418 -52.5964 -37.7881 -36.5375 -55.7413 -55.7658 -55.8874 -36.3447
-46.2001 -36.4556 -36.9394 -45.8231 -45.7889 -3.34539 -9.20716 -25.0765 -25.1279 -32.9756
-43.5932 -32.9946 -32.684 -43.0087 -21.2629 -18.986 -20.7047 115.426 140.144 138.127
139.038 114.682 109.31 170.035 169.909 170.477 167.741 136.4 108.399 113.577
137.151 -57.201 -54.2875 -52.8967 -52.7239 -55.7244 -46.1427 90.1775 93.4507 78.703
-14.9671 -6.24649 -6.78485 -20.8982 54.5073 56.3681 69.977 73.6367 -55.8487 -55.0803
-55.3835 -55.8457 -57.0246 -57.2601 -57.405 -57.5188 -56.2283 -56.3367 -55.9478 -56.0382
-134.997 -109.396 -77.8583 -95.7206 -98.0815 -99.221 -99.2127 -83.3301 -78.8962 -92.4228
-70.2698 -84.9366 -132.573 -136.241 -128.248 -96.0991 -96.8681 -54.8749 -54.3429 -55.0517
-56.1295 -56.416 -53.9658 -53.899 6.74491 7.2637 13.706 16.3159 13.7994 -50.9578
-50.2405 -45.7938 -46.0153 -46.2071 -46.0062 -45.9795 -45.7619 12.9565 12.6862 16.8934
8.2942 8.10081 9.65786 10.1389 10.1644 8.52697 7.34662 8.10855 12.4197 15.7324
13.7439 0.817611 -0.819842 -3.01033 7.05846 6.23056 5.11069 6.45393 7.16703 -52.483
-53.3794 -56.354 -55.6576 -48.6409 -49.6321 13.5949 15.5516 16.9403 -46.8655 -49.7601
-49.894 -46.5834 -45.7437 11.3647 11.1064 11.1492 9.56912 6.86472 -6.9985 -5.75961
5.48848 6.31588 6.28061 -48.5171 -48.8696 146.507 148.532 140.952 136.99 113.393
118.342 125.748 121.229 184.611 185.887 182.188 178.43 -55.7646 -55.6931 -53.0833
-52.9948 169.639 183.359 185.058 172.996 174.453 186.573 171.031 182.144 169.626
179.278 -16.8755 -19.1791 -23.9294 -28.2286 -26.8147 -22.9485 -8.81954 -3.48596 -3.91132
-9.1074 -14.1401 -13.7926 -1.02821 -9.0643 -9.93404 -15.0126 -18.1504 -8.20207 -8.96092
-24.957 -20.2211 -9.66258 -0.782852 -3.05415 6.04497 -3.51197 6.02758 6.79083 3.37687
3.90615 4.62643 4.1883 7.70343 6.07604 3.93912 5.79352 -18.922 -16.0057 -26.3471
-21.4789 -56.4119 -58.1396 -58.7485 -58.6193 3.02562 3.09331 5.02561 5.50799 4.27153
4.86807 -14.5401 -40.2821 -57.2334 -65.457 -53.2407 -31.8817 -58.9348 10.7166 10.175
10.1981 -2.41943 0.217868 12.0009 17.2698 9.52574 23.6446 20.5469 10.422 1.68032
6.82689 8.32327 13.1334 11.5642 6.8004 -53.4443 -44.069 -49.956 -13.0971 -43.9488
-24.999 -60.6782 -83.802 108.746 92.8273 106.249 108.425 112.791 111.933 172.888
172.011 173.262 172.578 171.281 185.967 185.968 185.203 -58.0266 -58.2371 174.485
-56.2018 -56.1998 -57.1152 -57.28 -56.9837 -55.9731 -149.277 -136.308 -136.184 -132.723
-156.847 -136.081 -132.239 -132.562 -119.297 -114.948 -80.3081 -73.1494 -73.4303 -70.8414
-119.303 -120.945 -56.7712 -55.7595 -54.6694 -57.1329 9.45139 7.10789 10.6657 8.21331
10.9835 12.0068 12.379 13.3391 14.1271 -55.2715 -54.3441 -56.3584 -55.1748 -53.2196
-52.9545 -53.07 -55.0016 -5.9639 -0.461898 -1.41044 -4.59079 9.19987 9.57185 6.81783
5.85735 7.56496 9.55335 8.79632 6.7122 1.35107 8.19244 7.09542 6.92866 8.66176
10.3873 9.2052 12.022 11.3124 -54.7314 -55.1556 -55.2835 -55.4109 -55.5627 -55.4117
-54.9059 -52.9127 -54.2373 -54.2459 -54.2579 -51.1838 -52.5789 -73.8935 -73.1047 -57.726
-60.0318 -77.7037 -68.5443 -77.623 -124.107 -128.708 -136.331 -79.6432 -97.6881 -107.528
-80.5063 -99.0358 128.782 113.622 148.544 151.766 -54.6839 -53.9185 -55.0225 -55.0019
-53.2047 143.894 167.878 146.153 -49.084 -48.2408 -48.6864 -49.467 -49.2792 -49.2969
-49.2234 -47.7116 -8.06541 -9.35926 -11.9088 -11.0151 -14.8556 -17.0516 -19.2041 -16.9786
-17.9142 74.812 85.5073 -58.5695 51.2144 76.5289 65.0012 75.626 61.0857 13.9983
11.1433 45.6245 36.6163 8.36896 9.202 3.64456 5.31151 5.12086 7.81948 6.73031
7.09719 7.48187 8.29361 -52.8799 -52.436 -52.1493 -52.7357 -1.02116 -0.518706 -1.09553
2.27063 5.70432 5.14636 7.09532 6.52966 -51.0634 -51.4833 -51.2096 138.219 136.302
171.194 184.784 189.089 189.376 186.867 185.343 -55.7967 -55.5064 -55.8299 -55.6658
-53.2175 -45.6841 -46.5063 -47.1227 -46.3308 -46.6599 -47.953 -56.0578 -56.0822 -56.674
-57.36 -57.07 -57.0543 -57.215 -56.8331 -55.2115 -115.898 -111.531 -134.5 -110.915
-133.828 -122.062 -123.464 -133.253 -56.1582 -57.513 -55.9355 -54.6981 13.6518 12.29
11.2626 12.4296 12.6833 13.327 -36.8643 -36.363 -31.5852 -31.0279 -41.8368 -42.3831
-46.5411 -46.1434 -51.1593 -51.2084 -45.6378 -52.231 -51.8708 -6.16054 -0.923243 -11.4274
0.647903 2.08597 8.01224 7.54737 7.8743 4.28272 10.6913 7.35293 8.76593 10.2604
10.9041 10.798 10.939 12.7003 12.3734 2.35828 12.4399 14.8243 15.9974 3.89635
3.40416 3.14263 3.82397 -59.0049 -58.1448 -52.9834 -56.5775 -44.7355 -44.1928 -40.1524
-44.52 -45.9421 -49.9971 -51.2138 -49.6344 -49.8622 -49.6159 -47.1835 -52.2596 -47.2922
4.20892 -48.3245 -49.6232 141.028 131.843 129.435 129.49 129.869 114.395 106.981
188.665 188.139 187.144 -50.7578 -51.089 -1.4276 -0.86062 0.178248 -29.7394 -30.6406
186.058 186.893 180.37 183.329 181.875 181.504 -33.2448 -29.0815 -3.19265 -7.85885
-5.97108 -3.24087 -24.8637 -13.7341 -10.305 -13.5062 -19.9399 -4.58017 80.8868 56.5282
60.8528 21.0739 21.4392 68.023 110.713 10.13 7.18445 -2.22168 -2.47754 6.82002
7.61466 7.90663 6.09799 6.54967 24.5346 16.2955 -0.426586 19.755 -1.772 3.48625
8.16238 8.08737 68.0257 110.214 -54.8237 -55.8966 18.1141 91.692 109.064 100.381
92.4248 108.045 109.16 126.576 134.314 143.19 -55.8711 81.7658 73.7796 50.6276
12.5368 18.5897 16.7616 -75.5406 -56.8537 -56.8471 -56.8503 -55.2543 -55.1751 -59.8804
-55.445 -59.9056 -60.4607 23.3303 -6.4643 5.95642 10.5501 10.7869 -1.39771 -1.50351
-2.6144 -55.694 -54.2458 -1.00925 2.54536 2.85183 -57.5679 -57.0097 -56.1476 7.95216
7.64478 4.12548 -56.6654 41.6419 49.8928 -66.0859 -58.4108 17.8227 15.3169 9.00071
6.9161 5.08094 8.52646 6.96936 -54.2402 -54.1978 -53.0257 -52.9565 -55.8569 -52.2893
-51.8188 -54.403 -54.7181 -54.7081 -54.1802 -55.2913 -54.8576 -54.7197 -54.4533 4.49084
-51.8093 -57.8934 -56.8617 100.545 129.18 144.736 155.198 168.107 162.943 160.755
148.758 188.248 -52.8848 -53.828 -51.9042 -7.45377 -10.4935 -3.31396 -49.7841 -49.8076
-49.7828 -50.0587 -53.211 -47.3178 -48.8481 -47.6111 -47.1291 -47.8318 28.8321 20.2622
-112.348 -119.959 -119.818 -120.453 -120.797 -73.8827 -96.4272 -73.8861 13.3594 16.9706
-10.9133 12.0802 11.522 -5.48057 -7.06136 4.12647 2.50876 0.99998 0.650453 -0.625636
-2.24504 -0.98588 4.1605 4.531 0.606039 2.85107 4.50557 2.42005 1.33186 13.2897
17.5683 -50.1343 5.51858 12.7709 8.51555 16.4943 8.46615 11.1808 14.2018 15.9762
4.80647 5.0121 6.46617 5.89583 -2.06603 -3.98025 -6.22483 -6.12657 4.86845 1.66735
4.38173 9.44706 15.3512 16.5587 8.24046 5.65958 3.03869 2.73194 7.18766 10.6678
11.3247 11.9666 11.0977 5.69879 -3.54906 5.57354 -2.79241 3.20671 -3.55796 2.44736
11.0035 8.3396 12.3737 6.96784 9.47271 11.3838 10.7767 10.4775 7.92313 8.63527
9.15484 9.40078 7.8822 7.35881 7.37184 6.0052 -5.46517 -8.97091 -7.19146 6.47286
5.88365 7.95724 6.23908 -9.18593 -10.9405 1.08204 7.05316 5.87749 -1.67206 5.67013
-136.58 -137.502 -137.709 10.2415 -55.6056 -54.5616 -54.6157 5.24678 9.92521 5.32639
8.40595 10.9822 -55.7633 -55.7247 -55.101 -54.7952 -61.0721 -60.574 -61.0598 -69.107
-116.117 -119.95 -113.797 -120.662 -49.0388 -49.5686 -47.517 -47.217 -47.4799 -47.1936
-14.6681 -14.6678 -17.0931 -52.6886 -52.5038 -52.2623 5.13952 1.51308 4.98474 4.95566
-52.0621 -52.4956 -52.6192 141.787 151.133 -55.3101 -50.7468 13.3306 13.8847 11.6048
7.20617 11.4879 18.7489 4.22092 3.34044 4.67994 3.67713 -53.3559 -57.2164 -57.0405
-55.2596 7.76701 15.0954 11.1262 4.10766 4.26149 10.0906 8.84382 9.53075 8.64155
10.4156 12.4385 10.2824 5.84054 8.57093 8.22613 -54.207 -50.2331 -48.5914 91.2203
80.2504 84.2166 66.741 72.7252 -4.74689 -2.88291 0.343668 -1.42933 7.63366 8.14697
7.68527 8.275 8.03452 7.52908 7.07642 116.829 106.795 94.7539 -73.8107 -57.2464
-55.92 -54.8138 -54.6038 -54.2691 -54.2197 163.487 139.77 161.896 162.005 7.61304
4.48283 10.6004 11.2995 7.2081 8.54097 7.43685 6.90815 6.16342 2.78588 -2.3364
4.76494 5.40106 5.98077 4.38617 6.68231 14.4389 9.05163 -12.7475 15.6453 14.305
7.66048 10.7665 15.953 9.14127 -12.6579 -13.5773 -11.6513 -2.81815 -4.84563 -13.0899
7.25082 5.29512 -14.6798 -16.2839 7.18909 4.88477 -0.994369 -3.89026 -55.1169 -46.0013
13.0567 1.96638 0.297694 -0.0922831 5.99002 5.55261 6.47858 6.06944 6.02624 5.61328
0.32419 6.29173 6.93333 -0.415934 5.73908 4.76184 7.20778 6.69815 6.12378 106.195
86.6618 122.013 123.799 5.20285 4.931 3.4794 -55.3352 5.13251 6.12157 5.89904
-9.48203 -12.4297 -0.176594 6.28169 6.77518 5.42124 8.09458 5.22849 6.91817 3.91775
37.4453 -53.2892 -55.1216 -54.6347 -54.5852 -54.6566 -2.87668 -4.25391 -12.5317 -12.4008
-12.423 -3.43101 9.41027 3.13655 5.99959 7.10568 2.62869 2.41171 0.138022 -0.831483
-10.8585 -5.18692 -4.08379 -11.225 -4.13604 -12.0772 5.59959 -11.3363 -12.3587 -2.41627
1.24507 6.37968 6.3918 5.82275 8.89571 0.270286 6.69095 -3.02732 -1.03878 4.39837
-0.744259 7.25575 4.87617 -9.78472 9.02354 -0.585381 6.17618 1.10647 1.48946 4.85252
5.20497 4.29725 5.01645 3.14264 7.67891 8.91349 5.48453 6.10109 0.997662 3.48406
11.1171 5.5674 0.869305 -0.479653 3.65502 173.162 176.984 176.115 181.028 169.128
168.097 172.677 179.954 180.946 69.785 73.9686 55.1815 -56.1583 -41.5507 -38.6684
-36.9511 -31.0629 -43.831 -52.0191 -51.6712 -55.3549 -46.8018 100.795 154.47 162.11
155.251 146.984 -56.6456 -56.2421 -56.5736 -56.3483 -55.845 -56.3091 -54.9163 -55.2212
-55.0615 3.94687 -0.349844 171.246 -18.4769 186.023 190.269 189.417 -51.3335 -47.3184
182.754 185.883 186.06 -16.33 -51.2091 85.2626 -54.9841 -55.1163 -55.3793 -55.3424
-49.5122 189.391 -2.44324 189.506 185.528 189.101 7.3671 -64.3342 110.669 109.979
-55.894 4.6737 -51.8008 -53.1166 -51.915 -137.895 138.727 -54.8259 159.224 -52.0379
-120.877 -120.795 72.2583 6.97718 2.64032 168.083 164.696 -15.4246 139.857 191.112
190.007 185.407 189.461 190.795 189.791 172.803 191.167 186.788 189.961 191.201
0.615317 0.610851 0.636181 0.705315 0.919311 1.62361 2.20991 -3.98299 1.35936 0.023317
-4.10072 -5.87001 0.408578 0.0900639 -0.00174512 0.00517161 0.0101554 0.00547064 0.000814687 -0.000771228
-0.000446612 0.000145693 0.00109597 0.000602657 -54.2365 -52.5115 -134.146 -134.702 -48.0543 -48.5193
-49.1961 -47.893 -48.4012 -49.1217 -49.7859 -47.3914 -94.9897 -74.6668 -48.9074 -47.2451
-74.1057 -48.8302 -51.326 -51.6807 -50.7955 -99.6947 -111.342 -129.645 -119.948 -119.767

U 3 2021 float
20.006 -0.0459676 -0.215968 20.0437 -0.0309065 -0.0740877 19.9289 -0.00654065 -0.0965135 19.9352 -0.0559986
-0.606827 20.0176 -0.0596586 0.0399647 20.018 -0.0595536 0.0399974 20.1683 -0.0786258 0.0575111
20.233 -0.0868401 0.0655435 20.2786 -0.091842 0.149286 20.2913 -0.116774 0.263817 20.2102
-0.118027 0.208641 19.9543 -0.0474891 0.0198659 19.9967 -0.0549749 0.0183592 20.0037 -0.053253
0.00698252 19.8525 -0.0246077 0.0176944 19.8513 -0.0213822 0.0141558 20.0059 -0.0529517 0.00189909
19.8537 -0.0199716 0.00968043 20.0043 -0.0521242 0.00051978 19.8528 -0.0183141 0.00879081 20.0026
-0.0512965 -1.23314e-05 19.8514 -0.0167613 0.00849584 20.0011 -0.0505312 -0.000293801 19.8503 -0.0154269
0.00826458 19.9995 -0.0498427 -0.000475971 19.8493 -0.0142669 0.0080495 19.9979 -0.0491818 -0.000602657
19.8482 -0.0132096 0.00786077 19.9962 -0.0485318 -0.000701268 19.8471 -0.0122478 0.00766131 19.9945
-0.0478957 -0.000737263 19.846 -0.0113666 0.00757062 19.9926 -0.0472379 -0.000828572 19.845 -0.0104385
0.00729054 19.8446 -0.0099554 0.00698854 19.9923 -0.0470271 -0.000869658 19.9996 -0.000343607 3.12964e-05
20 0 0 20 0 0 19.9996 -0.000343658 7.87264e-05 19.9983
-0.000793766 9.39067e-05 19.9984 -0.000803344 0.000278853 19.9942 -0.00156245 0.000368163 19.9941 -0.00152678
0.00100029 19.9788 -0.00282126 0.000336554 19.9795 -0.00314488 0.00358063 19.9464 -0.00551043 -0.0090546
19.9362 -0.00625792 -0.00794743 19.9389 0.00223461 -0.0143155 19.9275 -0.00552303 -0.0294986 19.906
0.00516876 -0.060996 20.2333 -0.0730257 0.0017621 20.0483 -0.0290631 -0.0567105 20.2354 -0.07211
0.00501083 19.9269 -0.0895082 0.0305691 20.0248 -0.119124 0.0820193 20.2327 -0.0868083 0.0650246
19.8544 -0.0298254 0.023419 19.3063 0.120535 0.0100005 19.3384 0.117929 0.0111334 19.3665
0.112173 0.0112023 19.3877 0.107871 0.011903 19.4061 0.104077 0.0124205 19.4231 0.100474
0.0126066 19.4391 0.0970654 0.0126195 19.4541 0.0938571 0.0125531 19.4684 0.0907984 0.0124177
19.4816 0.0879059 0.0123071 19.4963 0.0850793 0.0120269 19.5051 0.0836244 0.0117677 20
0 0 19.9996 -0.000344212 0.000137416 19.9985 -0.000801686 0.000490617 19.9945 -0.00153239
0.0017202 19.98 -0.00326675 0.00603815 19.9197 -0.00881739 0.0107696 19.9194 -0.00798024 0.00103486
19.8498 -0.0166731 -0.0957352 19.7932 -0.0206025 -0.0681077 19.9547 -0.0512143 -1.02492 20.4344
-0.0679243 -0.936608 20.2157 -0.0537031 -0.510049 19.93 -0.0560225 -0.63634 20.3101 -0.164638
0.453317 20.3105 -0.165525 0.456779 20.0995 -0.250858 0.581505 19.9897 -0.239921 0.300816