# vtk DataFile Version 2.0
tracks
ASCII
DATASET POLYDATA
POINTS 2590 float
-1.001 -0.05 0.0011 -0.900789 -0.0500216 0.00109731 -0.800577 -0.0500431 0.00109463 -0.700366 -0.0500646
0.00109196 -0.600155 -0.050086 0.00108929 -0.499943 -0.0501073 0.00108663 -0.424945 -0.0501113 0.00107893
-0.349947 -0.0501523 0.00106882 -0.274949 -0.0501929 0.00105881 -0.19995 -0.0502331 0.00104889 -0.124952
-0.0502729 0.00103906 -0.0499538 -0.0502824 0.0010393 0.0250446 -0.0502913 0.00104803 0.100043 -0.0503003
0.00105685 0.175041 -0.0503093 0.00106573 0.25004 -0.0503185 0.00107469 0.400037 -0.0503125 0.00109079
0.550035 -0.0503107 0.00110502 0.700032 -0.0503089 0.00111944 0.85003 -0.050307 0.00113405 1.00003
-0.0503052 0.00114885 1.15003 -0.0503159 0.00115605 1.30002 -0.0503216 0.00116054 1.45002 -0.0503273
0.00116504 1.60002 -0.0503331 0.00116956 1.75002 -0.0503389 0.0011741 1.90002 -0.0503474 0.00117696
2.05002 -0.0503539 0.0011789 2.20001 -0.0503605 0.00118084 2.35001 -0.050367 0.00118278 2.50001
-0.0503736 0.00118473 2.65001 -0.0503815 0.00118578 2.80001 -0.0503896 0.00118647 2.95001 -0.0503977
0.00118717 3.10001 -0.0504059 0.00118786 3.25001 -0.050414 0.00118856 3.40001 -0.0504219 0.00118884
3.55001 -0.0504307 0.00118942 3.70001 -0.0504396 0.00119 3.85001 -0.0504484 0.00119058 4.00001
-0.0504573 0.00119116 4.15 -0.050465 0.00119124 4.3 -0.0504747 0.00119191 4.45 -0.0504843
0.00119258 4.6 -0.0504939 0.00119325 4.75 -0.0505036 0.00119393 4.9 -0.0505112 0.00119392
5.05 -0.0505213 0.00119476 5.2 -0.0505315 0.00119559 5.35 -0.0505416 0.00119642 5.5
-0.0505517 0.00119725 5.65 -0.0505593 0.00119721 5.8 -0.0505697 0.0011982 5.95 -0.0505801
0.00119919 6.1 -0.0505906 0.00120018 6.25 -0.050601 0.00120117 6.4 -0.0506085 0.0012011
6.55 -0.0506191 0.00120222 6.7 -0.0506298 0.00120335 6.85 -0.0506404 0.00120448 7
-0.0506511 0.00120561 7.15 -0.0506585 0.00120552 7.3 -0.0506693 0.00120675 7.45 -0.0506801
0.00120799 7.6 -0.0506909 0.00120922 7.75 -0.0507017 0.00121046 7.9 -0.0507091 0.00121036
8.05 -0.05072 0.00121168 8.2 -0.0507309 0.00121301 8.35 -0.0507418 0.00121433 8.5
-0.0507527 0.00121566 8.65 -0.05076 0.00121555 8.8 -0.050771 0.00121695 8.95 -0.050782
0.00121835 9.1 -0.050793 0.00121976 9.25 -0.050804 0.00122116 9.4 -0.0508112 0.00122104
9.55 -0.0508683 0.00122315 9.7 -0.0509767 0.00122599 9.85 -0.0511364 0.00122955 10
-0.0513474 0.00123385 -1.001 -0.05 0.0537316 -0.900807 -0.0501062 0.0535765 -0.800614 -0.0502127
0.0533942 -0.700421 -0.0503428 0.0531782 -0.600229 -0.0505041 0.0529265 -0.500035 -0.0506965 0.0526394
-0.425004 -0.0509451 0.0524173 -0.349973 -0.0512832 0.0521282 -0.274943 -0.0516688 0.0518601 -0.199912
-0.052088 0.0516344 -0.124879 -0.0524917 0.051491 -0.0498864 -0.0527591 0.051528 0.0251065 -0.0529802
0.051694 0.100099 -0.0531966 0.0519284 0.175092 -0.0534222 0.052211 0.250087 -0.053643 0.0525287
0.400077 -0.0540306 0.0531645 0.550067 -0.0544158 0.0536794 0.700057 -0.0547595 0.0541457 0.850047
-0.0550618 0.0545628 1.00003 -0.0553306 0.0549304 1.14687 -0.0556995 0.0552087 1.2937 -0.0560368
0.0554684 1.44053 -0.0563714 0.0556944 1.58736 -0.0567032 0.0558866 1.70475 -0.0569665 0.0560133
1.7138 -0.0569876 0.0560218 1.72285 -0.0570087 0.0560301 1.73191 -0.05703 0.0560384 1.74096
-0.0570514 0.0560466 1.75002 -0.0570728 0.0560547 1.90002 -0.0574303 0.0561879 2.05002 -0.0577834
0.0563039 2.20001 -0.0581326 0.0564022 2.35001 -0.0584781 0.0564829 2.50001 -0.0588196 0.056546
2.65001 -0.0591663 0.0565979 2.80001 -0.0595127 0.0566432 2.95001 -0.0598583 0.0566807 3.10001
-0.060203 0.0567106 3.25001 -0.060547 0.0567328 3.40001 -0.0608918 0.0567499 3.55001 -0.061238
0.0567663 3.70001 -0.0615827 0.0567806 3.85001 -0.0619259 0.056793 4.00001 -0.0622677 0.0568032
4.15 -0.0626071 0.0568111 4.3 -0.0629504 0.0568199 4.45 -0.0632922 0.056828 4.6
-0.0636326 0.0568354 4.75 -0.0639714 0.056842 4.9 -0.0643053 0.0568463 5.05 -0.0646447
0.0568525 5.2 -0.0649827 0.0568583 5.35 -0.0653193 0.0568638 5.5 -0.0656545 0.0568689
5.65 -0.0659829 0.0568713 5.8 -0.0663179 0.0568764 5.95 -0.0666515 0.0568812 6.1
-0.066984 0.0568857 6.25 -0.0673152 0.05689 6.4 -0.0676383 0.0568914 6.55 -0.0679687
0.0568957 6.7 -0.0682979 0.0568999 6.85 -0.0686258 0.056904 7 -0.0689526 0.0569079
7.15 -0.0692706 0.0569085 7.3 -0.0695963 0.0569124 7.45 -0.0699209 0.0569163 7.6
-0.0702443 0.05692 7.75 -0.0705665 0.0569236 7.9 -0.0708793 0.0569237 8.05 -0.0712003
0.0569274 8.2 -0.0715201 0.0569311 8.35 -0.0718388 0.0569347 8.5 -0.0721563 0.0569384
8.65 -0.0724641 0.0569384 8.8 -0.0727803 0.0569421 8.95 -0.0730954 0.0569457 9.1
-0.0734092 0.0569492 9.25 -0.0737219 0.0569526 9.4 -0.0740245 0.0569521 9.55 -0.0743362
0.0569556 9.7 -0.0746474 0.056959 9.85 -0.0749581 0.0569624 10 -0.0752683 0.0569658
-1.001 -0.05 0.106363 -0.900818 -0.0500781 0.106138 -0.800636 -0.0501541 0.105866 -0.700455
-0.0502568 0.105547 -0.600274 -0.0504299 0.105005 -0.50009 -0.0506731 0.104244 -0.424996 -0.0509606
0.10366 -0.349901 -0.0513097 0.103055 -0.274807 -0.051663 0.102519 -0.199711 -0.0519619 0.102091
-0.124607 -0.052305 0.101989 -0.0496046 -0.0525539 0.102103 0.0253975 -0.0527478 0.102333 0.100399
-0.0529288 0.102645 0.175401 -0.0531302 0.103042 0.250411 -0.0533517 0.103524 0.400346 -0.0537597
0.104524 0.550283 -0.0541661 0.105396 0.70022 -0.0545335 0.10618 0.850157 -0.05487 0.106797
1.00009 -0.0551755 0.107247 1.15007 -0.0556163 0.107512 1.30006 -0.0559133 0.107809 1.45005
-0.0561591 0.108085 1.60003 -0.056399 0.108329 1.75002 -0.0566329 0.10854 1.90002 -0.0569406
0.108684 2.05002 -0.0571851 0.10884 2.20001 -0.0574238 0.108979 2.35001 -0.05766 0.109101
2.50001 -0.0578937 0.109206 2.65001 -0.0581835 0.109275 2.80001 -0.0584317 0.109343 2.95001
-0.0586786 0.109403 3.10001 -0.0589248 0.109456 3.25001 -0.0591703 0.109501 3.40001 -0.0594584
0.109535 3.55001 -0.0597105 0.109569 3.70001 -0.0599606 0.1096 3.85001 -0.0602091 0.10963
4 -0.0604561 0.109657 4.15 -0.0607381 0.109683 4.3 -0.0609901 0.109704 4.45
-0.0612402 0.109725 4.6 -0.0614887 0.109745 4.75 -0.0617357 0.109764 4.9 -0.0620113
0.109786 5.05 -0.0622613 0.109802 5.2 -0.0625096 0.109816 5.35 -0.0627565 0.109831
5.5 -0.063002 0.109845 5.65 -0.0632711 0.109865 5.8 -0.0635185 0.109876 5.95
-0.0637645 0.109887 6.1 -0.0640091 0.109898 6.25 -0.0642525 0.109908 6.4 -0.0645156
0.109927 6.55 -0.0647601 0.109935 6.7 -0.0650032 0.109943 6.85 -0.0652452 0.10995
7 -0.0654859 0.109957 7.15 -0.0657431 0.109976 7.3 -0.0659845 0.109981 7.45
-0.0662246 0.109987 7.6 -0.0664634 0.109992 7.75 -0.0667011 0.109997 7.9 -0.0669527
0.110015 8.05 -0.0671907 0.110018 8.2 -0.0674275 0.110022 8.35 -0.0676632 0.110025
8.5 -0.0678976 0.110029 8.65 -0.0681437 0.110046 8.8 -0.0683782 0.110049 8.95
-0.0686114 0.110051 9.1 -0.0688435 0.110054 9.25 -0.0690743 0.110056 9.4 -0.0693147
0.110072 9.55 -0.0695459 0.110073 9.7 -0.0697765 0.110074 9.85 -0.0700065 0.110075
10 -0.0702361 0.110076 -1.001 -0.05 0.158995 -0.900796 -0.0500887 0.15877 -0.800593
-0.0501932 0.158424 -0.700392 -0.0503552 0.157688 -0.600196 -0.0505873 0.156477 -0.499992 -0.0508814
0.154638 -0.42472 -0.0514889 0.153037 -0.349437 -0.0519569 0.152118 -0.274149 -0.0523543 0.151558
-0.19886 -0.0527497 0.151267 -0.1237 -0.0530674 0.151322 -0.0487806 -0.0531908 0.151485 0.0261371
-0.0532695 0.151966 0.101053 -0.0534095 0.152671 0.175968 -0.0535763 0.15347 0.250944 -0.0537304
0.154298 0.400784 -0.053942 0.155719 0.550625 -0.0544487 0.156896 0.700468 -0.0549208 0.157651
0.850313 -0.0553189 0.158249 1.00014 -0.0556857 0.15868 1.15012 -0.0561888 0.158926 1.30009
-0.0565474 0.159204 1.45007 -0.0568127 0.159472 1.60005 -0.0570009 0.159726 1.75002 -0.0571832
0.159948 1.90002 -0.0574402 0.160103 2.05002 -0.0576337 0.160269 2.20002 -0.057815 0.160421
2.35001 -0.0579876 0.160558 2.50001 -0.0581577 0.160677 2.65001 -0.0583845 0.160761 2.80001
-0.0585695 0.160843 2.95001 -0.0587521 0.160918 3.10001 -0.0589332 0.160987 3.25001 -0.0591136
0.161047 3.40001 -0.0593367 0.161097 3.55001 -0.0595238 0.161146 3.70001 -0.0597082 0.161194
3.85001 -0.0598902 0.16124 4 -0.0600708 0.161284 4.15 -0.0602863 0.161326 4.3
-0.0604719 0.161364 4.45 -0.0606549 0.161401 4.6 -0.0608358 0.161438 4.75 -0.0610151
0.161474 4.9 -0.0612227 0.161513 5.05 -0.0614051 0.161546 5.2 -0.0615852 0.161578
5.35 -0.0617635 0.161609 5.5 -0.0619403 0.16164 5.65 -0.0621405 0.161678 5.8
-0.0623193 0.161706 5.95 -0.0624961 0.161734 6.1 -0.0626713 0.161761 6.25 -0.0628452
0.161789 6.4 -0.0630384 0.161825 6.55 -0.0632135 0.16185 6.7 -0.0633868 0.161875
6.85 -0.0635585 0.161899 7 -0.0637291 0.161924 7.15 -0.0639157 0.161959 7.3
-0.0640869 0.161982 7.45 -0.0642565 0.162004 7.6 -0.0644246 0.162026 7.75 -0.0645916
0.162048 7.9 -0.064772 0.162082 8.05 -0.0649393 0.162103 8.2 -0.0651051 0.162124
8.35 -0.0652696 0.162144 8.5 -0.065433 0.162165 8.65 -0.0656074 0.162199 8.8
-0.0657707 0.162218 8.95 -0.0659325 0.162237 9.1 -0.0660929 0.162256 9.25 -0.0662521
0.162275 9.4 -0.0664204 0.162308 9.55 -0.0665799 0.162325 9.7 -0.0667385 0.162343
9.85 -0.0668964 0.16236 10 -0.0670538 0.162377 -1.001 -0.05 0.211626 -0.947631
-0.0500807 0.211469 -0.894261 -0.0501659 0.211279 -0.840892 -0.0502557 0.211054 -0.787523 -0.0503901
0.210764 -0.724308 -0.0506339 0.210285 -0.679432 -0.0509116 0.209636 -0.63456 -0.0512467 0.208757
-0.589692 -0.0515856 0.207742 -0.544826 -0.0519296 0.206589 -0.499928 -0.0522801 0.205297 -0.4694
-0.0525746 0.204243 -0.438873 -0.0528794 0.203126 -0.408342 -0.0531686 0.202137 -0.377807 -0.0534435
0.201269 -0.329441 -0.0538636 0.200029 -0.288513 -0.0542034 0.199125 -0.247581 -0.054543 0.198438
-0.206645 -0.0548868 0.198063 -0.165706 -0.055195 0.197974 -0.124885 -0.0554288 0.198149 -0.0496128
-0.0557357 0.198862 0.025657 -0.0558735 0.199812 0.100922 -0.055983 0.201094 0.176185 -0.0561257
0.202454 0.251488 -0.0562615 0.203608 0.25161 -0.0562616 0.20361 0.251732 -0.0562618 0.203612
0.251855 -0.056262 0.203613 0.251977 -0.0562622 0.203615 0.2521 -0.0562624 0.203616 0.326734
-0.0563759 0.204594 0.40137 -0.0564913 0.205446 0.476007 -0.0566088 0.206169 0.550645 -0.0567547
[...]
POINT_DATA 2590
FIELD attributes 4
age 1 2590 float
0 0.00501121 0.0100224 0.0150336 0.0200448 0.025056 0.0288056 0.0325533 0.036301 0.0400488 0.0437965
0.0475449 0.0512905 0.0550361 0.0587817 0.0625272 0.070024 0.0775229 0.0850219 0.0925208 0.10002
0.10752 0.115019 0.122519 0.130019 0.137519 0.145019 0.152519 0.160019 0.167518 0.175018
0.182518 0.190018 0.197517 0.205017 0.212517 0.220017 0.227516 0.235016 0.242516 0.250015
0.257515 0.265015 0.272515 0.280014 0.287514 0.295014 0.302514 0.310014 0.317513 0.325013
0.332513 0.340013 0.347512 0.355012 0.362512 0.370012 0.377512 0.385011 0.392511 0.400011
0.407511 0.415011 0.42251 0.43001 0.43751 0.44501 0.452509 0.460009 0.467509 0.475009
0.482509 0.490009 0.497508 0.505008 0.512508 0.520008 0.527507 0.535005 0.542503 0.55
0 0.00502601 0.0100533 0.0150746 0.0200878 0.0250929 0.028832 0.0325652 0.0362916 0.0400113
0.0437247 0.0474309 0.0511301 0.0548276 0.0585249 0.062224 0.0696348 0.0770708 0.0845215 0.0919871
0.0994673 0.106803 0.11414 0.121478 0.128817 0.134686 0.135139 0.135591 0.136044 0.136497
0.13695 0.14445 0.15195 0.15945 0.166948 0.174447 0.181945 0.189442 0.19694 0.204437
0.211933 0.219431 0.226928 0.234425 0.241922 0.249419 0.256917 0.264414 0.271912 0.279409
0.286907 0.294406 0.301904 0.309402 0.3169 0.324398 0.331897 0.339395 0.346894 0.354393
0.361891 0.369391 0.37689 0.384389 0.391888 0.399387 0.406887 0.414386 0.421886 0.429385
0.436885 0.444386 0.451886 0.459386 0.466886 0.474386 0.481887 0.489387 0.496888 0.504389
0.51189 0.519391 0.526892 0.534393 0.541894 0.549395 0 0.005028 0.0100578 0.0150819
0.0200993 0.0251104 0.0288575 0.0325975 0.0363282 0.0400541 0.0437702 0.047475 0.0511739 0.0548717
0.0585686 0.0622651 0.0696634 0.0770888 0.0845323 0.0919979 0.0994852 0.106988 0.114493 0.122
0.129509 0.137018 0.144533 0.152042 0.159551 0.167058 0.174565 0.182078 0.189584 0.197089
0.204594 0.212099 0.219611 0.227116 0.234621 0.242126 0.249632 0.257144 0.264649 0.272155
0.27966 0.287166 0.294679 0.302185 0.30969 0.317196 0.324702 0.332216 0.339722 0.347228
0.354734 0.362241 0.369755 0.377261 0.384768 0.392274 0.399781 0.407295 0.414802 0.422309
0.429816 0.437324 0.444838 0.452346 0.459853 0.467361 0.474868 0.482383 0.489891 0.497399
0.504907 0.512415 0.519931 0.527439 0.534947 0.542455 0.549963 0 0.00503011 0.0100662
0.0150995 0.0201269 0.0251495 0.0289152 0.0326691 0.036411 0.0401426 0.0438574 0.0475524 0.0512419
0.0549304 0.0586181 0.0623093 0.0696964 0.0771197 0.0845737 0.0920442 0.0995359 0.107048 0.114561
0.12208 0.129602 0.137126 0.144655 0.152178 0.159701 0.167224 0.174746 0.182274 0.189795
0.197316 0.204837 0.212357 0.219884 0.227404 0.234924 0.242445 0.249965 0.257493 0.265013
0.272534 0.280055 0.287576 0.295104 0.302625 0.310146 0.317667 0.325188 0.332717 0.340238
0.34776 0.355281 0.362803 0.370332 0.377854 0.385376 0.392898 0.40042 0.407949 0.415472
0.422994 0.430516 0.438039 0.445569 0.453091 0.460614 0.468137 0.47566 0.48319 0.490713
0.498236 0.505759 0.513283 0.520814 0.528337 0.535861 0.543384 0.550908 0 0.0026828
0.00536728 0.00805344 0.010739 0.0139179 0.0161731 0.0184278 0.0206819 0.0229351 0.0251892 0.0267196
0.0282479 0.0297732 0.0312956 0.0337014 0.0357295 0.0377519 0.0397688 0.0417801 0.0437801 0.0474589
0.051139 0.0548204 0.0585083 0.062209 0.062215 0.062221 0.0622271 0.0622331 0.0622391 0.0659155
0.0696019 0.0732983 0.0770051 0.0807218 0.0813159 0.08191 0.0825042 0.0830984 0.0836781 0.0868332
0.0899909 0.0931512 0.0963141 0.0994791 0.107 0.114522 0.122049 0.129581 0.137117 0.144661
0.152197 0.159734 0.167271 0.174808 0.182351 0.189886 0.197421 0.204956 0.212491 0.220033
0.227568 0.235103 0.242638 0.250173 0.257715 0.26525 0.272785 0.280321 0.287856 0.295399
0.302935 0.31047 0.318006 0.325542 0.333085 0.340621 0.348158 0.355694 0.36323 0.370774
0.37831 0.385847 0.393384 0.40092 0.408464 0.416001 0.423538 0.431075 0.438613 0.446157
0.453694 0.461232 0.468769 0.476307 0.483852 0.49139 0.498928 0.506465 0.514003 0.521549
0.529087 0.536625 0.544163 0.551702 0 0.00126444 0.00252927 0.00379478 0.00506108 0.00632821
0.0101157 0.0139116 0.017719 0.0215331 0.0253296 0.0269127 0.0284856 0.0300517 0.0316106 0.033006
0.0333311 0.0336559 0.0339804 0.0343046 0.0346288 0.036457 0.0382781 0.0400902 0.0418972 0.0436947
0.0454952 0.0473003 0.0491174 0.0509395 0.0527657 0.0529053 0.053045 0.0531847 0.0533243 0.0534703
0.0551607 0.0568538 0.0585497 0.0602485 0.06195 0.0656457 0.0693583 0.0730889 0.0768302 0.0805806
0.0843441 0.0881067 0.0918701 0.0956362 0.0994047 0.10694 0.114478 0.122021 0.129567 0.137117
0.144683 0.152236 0.159789 0.167342 0.174895 0.182455 0.190007 0.197559 0.20511 0.212661
0.22022 0.227771 0.235322 0.242873 0.250425 0.257983 0.265535 0.273086 0.280638 0.28819
0.295749 0.303301 0.310852 0.318404 0.325956 0.333516 0.341068 0.34862 0.356173 0.363725
0.371285 0.378838 0.38639 0.393943 0.401496 0.409056 0.416609 0.424162 0.431715 0.439268
0.446829 0.454382 0.461935 0.469488 0.477042 0.484603 0.492156 0.49971 0.507263 0.514817
0.522379 0.529932 0.537486 0.54504 0.552594 0 0.00126545 0.00253141 0.00379789 0.00506489
0.00633242 0.00822681 0.0101236 0.0120228 0.0139249 0.0158291 0.0177465 0.0196688 0.0215921 0.0235186
0.0254574 0.0264285 0.027397 0.028361 0.0293206 0.03028 0.0307566 0.0312316 0.0317045 0.0321754
0.0326905 0.0331447 0.0335969 0.0340471 0.0344953 0.0349411 0.0358513 0.0367584 0.0376614 0.0385601
0.03945 0.0403391 0.0412267 0.0421137 0.0430003 0.0438875 0.0452124 0.0465438 0.047882 0.0492259
0.0492304 0.0499607 0.0506923 0.0514254 0.05216 0.0528953 0.054724 0.0565663 0.05842 0.0602803
0.0621414 0.0640125 0.0658847 0.067759 0.0696359 0.0715169 0.0734054 0.0752882 0.0771673 0.0790483
0.0809344 0.0840398 0.0871492 0.0902603 0.0933729 0.0960133 0.096796 0.0975789 0.0983619 0.0991451
0.0999283 0.107522 0.115117 0.122717 0.13032 0.137927 0.145559 0.153166 0.160769 0.168371
0.175973 0.183594 0.191193 0.198791 0.206389 0.213987 0.221604 0.229201 0.236797 0.244393
0.25199 0.259605 0.267201 0.274797 0.282393 0.289989 0.297602 0.305198 0.312794 0.320389
0.327985 0.335597 0.343193 0.350788 0.358383 0.365978 0.373589 0.381184 0.388779 0.396374
0.403969 0.411578 0.419173 0.426767 0.434362 0.441957 0.449564 0.457159 0.464753 0.472347
0.479942 0.487548 0.495143 0.502736 0.51033 0.517924 0.525529 0.533123 0.540716 0.54831
0.555903 0 0.00126279 0.00252626 0.00379076 0.00505644 0.0063233 0.00823334 0.0101454 0.0120612
0.0139803 0.0159048 0.0178221 0.0197523 0.0216954 0.0236512 0.0256294 0.0266293 0.0276301 0.0286312
0.0296316 0.0306438 0.0308911 0.0311384 0.0313853 0.0316303 0.03182 0.0325707 0.0333088 0.0340338
0.0347452 0.0354485 0.0358954 0.0363407 0.0367845 0.0372269 0.0376632 0.0381005 0.0385351 0.0389672
0.0393987 0.0398277 0.0402596 0.0406915 0.0411236 0.0415562 0.0419915 0.0424269 0.0428617 0.043297
0.0437331 0.0441715 0.0450483 0.0459344 0.0468312 0.047739 0.048664 0.0493889 0.0501129 0.0508391
0.0515685 0.0524632 0.0526409 0.0528187 0.0529966 0.0531747 0.0533529 0.0543069 0.0552594 0.0562139
0.057172 0.058132 0.0591009 0.0600691 0.0610383 0.0620105 0.0629845 0.0649536 0.0669176 0.0688765
0.0708397 0.0727856 0.0747173 0.0766642 0.0786267 0.0805938 0.0825653 0.0865278 0.090482 0.0944101
0.0983217 0.102237 0.110067 0.117863 0.125588 0.133254 0.140923 0.148622 0.156299 0.163971
0.171639 0.179305 0.186986 0.19465 0.202313 0.209973 0.217634 0.225308 0.232967 0.240626
0.248282 0.255939 0.263609 0.271266 0.278921 0.286576 0.29423 0.301896 0.309551 0.317204
0.324856 0.332509 0.340171 0.347824 0.355475 0.363125 0.370775 0.378435 0.386085 0.393734
0.401382 0.40903 0.416687 0.424335 0.431982 0.439628 0.447275 0.454928 0.462574 0.470219
0.477864 0.485508 0.493159 0.500803 0.508447 0.516089 0.523731 0.531379 0.539021 0.546663
0.554304 0.561945 0 0.00126442 0.00252948 0.0037952 0.00506156 0.00632918 0.00824623 0.0101657
0.0120885 0.0140175 0.0159588 0.0169288 0.0179018 0.0188779 0.0198572 0.0208397 0.0218274 0.0228231
0.0238279 0.0248416 0.0258657 0.0263833 0.0269027 0.0274258 0.0279525 0.0284855 0.0287758 0.0290676
0.0293617 0.0296584 0.0297563 0.0300564 0.0303578 0.0306601 0.0309622 0.0312725 0.0313691 0.0314656
0.0315622 0.0316591 0.0317299 0.0317652 0.0318005 0.0318358 0.0318711 0.0319047 0.0320681 0.0322313
0.0323943 0.0325572 0.0327214 0.0329004 0.0330789 0.033257 0.0334321 0.0335613 0.0336668 0.0337717
0.0338761 0.0339795 0.0340844 0.0341947 0.0343034 0.0344108 0.0345171 0.0346039 0.0346588 0.0347134
0.0347676 0.0348216 0.0348743 0.0349718 0.0350688 0.0351654 0.0352615 0.0353555 0.0354781 0.0355993
0.035719 0.0358377 0.0360318 0.0361316 0.036231 0.03633 0.036429 0.0365182 0.0366032 0.0366883
0.0367734 0.0368585 0.0370112 0.0371359 0.0372605 0.0373848 0.0375089 0.0376313 0.0378505 0.038068
0.0382855 0.0385038 0.0387183 0.0389368 0.0391546 0.0393726 0.0395911 0.0398095 0.0400308 0.0402503
0.0404701 0.0406901 0.0409109 0.0411315 0.0413516 0.0415719 0.0417929 0.0420165 0.0422414 0.0424645
0.0426875 0.0429111 0.0431358 0.0434666 0.0437991 0.0441369 0.0444803 0.0446468 0.0448108 0.0449752
0.0451399 0.045305 0.0454713 0.0459592 0.0464391 0.0469193 0.0473951 0.0478922 0.0484101 0.0489174
0.0494249 0.0499373 0.0504569 0.050527 0.0505971 0.0506674 0.0507379 0.0508069 0.0518154 0.0528657
0.0539609 0.0550182 0.0560875 0.0572911 0.0584724 0.0596544 0.0608424 0.0620303 0.0624444 0.0628575
0.0632704 0.0636836 0.0641518 0.0649427 0.0657257 0.0665051 0.0672865 0.0680667 0.0682429 0.0684188
0.0685939 0.0687682 0.0689404 0.0699506 0.0709592 0.071966 0.072971 0.0739717 0.0751245 0.0762977
0.0774747 0.0786531 0.0798339 0.0813407 0.0828486 0.0843636 0.0858819 0.0878359 0.0885375 0.0892362
0.0899321 0.0906253 0.0913153 0.0958239 0.100308 0.104717 0.109036 0.113224 0.121398 0.129509
0.137547 0.145514 0.153399 0.16116 0.16892 0.176679 0.184434 0.192187 0.199936 0.207685
0.215432 0.223177 0.23092 0.238091 0.245262 0.252432 0.259601 0.266896 0.267439 0.267982
0.268524 0.269067 0.26961 0.277344 0.285079 0.292813 0.300548 0.308282 0.316008 0.323743
0.331477 0.339211 0.346945 0.354665 0.362398 0.370132 0.377866 0.3856 0.393313 0.401046
0.408779 0.416512 0.424245 0.431952 0.439684 0.447416 0.455149 0.462881 0.470582 0.478313
0.486045 0.493776 0.501507 0.509203 0.516933 0.524663 0.532393 0.540123 0.547812 0.55554
0.563268 0.570996 0.578725 0 0.00125411 0.00250917 0.00376554 0.00502335 0.00628273 0.00821405
0.010148 0.0120849 0.0140287 0.0159869 0.0169596 0.0179362 0.0189168 0.0199014 0.0208902 0.0218847
0.02289 0.0239069 0.0249356 0.0259773 0.0265059 0.0270377 0.0275763 0.0281216 0.0286759 0.0292414
0.0298147 0.0304009 0.0310011 0.0316278 0.0319467 0.0322655 0.032585 0.0329055 0.0332405 0.0333122
0.0333839 0.0334556 0.0335273 0.0335857 0.0336613 0.0337356 0.033809 0.0338818 0.0339433 0.0341148
0.0342831 0.0344481 0.0346096 0.0347765 0.034919 0.0350587 0.0351958 0.0353296 0.0354488 0.0355693
0.0356892 0.0358085 0.0359263 0.0360382 0.0361554 0.0362695 0.0363807 0.0364913 0.0366375 0.0367446
0.0368515 0.0369583 0.0370648 0.0371625 0.0373576 0.0375528 0.0377512 0.0379525 0.0383838 0.0386169
0.0388505 0.039082 0.0393117 0.0395368 0.0399995 0.0404566 0.0409105 0.0413614 0.041808 0.0422649
0.0427083 0.0431551 0.043605 0.0440579 0.0445326 0.0450012 0.0454812 0.0459659 0.0464586 0.0472765
0.0481125 0.0489611 0.0498258 0.0518109 0.0529378 0.0540648 0.0552156 0.0563867 0.0575929 0.0588579
0.0600954 0.0613162 0.0625464 0.0637812 0.0646363 0.0654807 0.0663246 0.0671636 0.0682073 0.0685676
0.0689282 0.069289 0.0696501 0.0700116 0.0706447 0.0712784 0.0719131 0.0725487 0.0732952 0.0738882
0.0744809 0.0750733 0.0756646 0.0762527 0.0775002 0.0787513 0.0800102 0.0812697 0.082529 0.0850281
0.0875313 0.0900031 0.0924321 0.0948316 0.0996539 0.104425 0.109058 0.113556 0.117998 0.121102
0.124198 0.127283 0.130357 0.134026 0.13915 0.144205 0.149191 0.154111 0.158965 0.166725
0.174496 0.182266 0.190034 0.197801 0.205546 0.213311 0.221077 0.228841 0.236606 0.244339
0.252102 0.259864 0.267627 0.27539 0.283115 0.290876 0.298638 0.306399 0.314161 0.321879
0.329639 0.337399 0.34516 0.352921 0.360632 0.368391 0.37615 0.383909 0.391669 0.399374
0.407132 0.414889 0.422647 0.430406 0.438105 0.445861 0.453617 0.461374 0.46913 0.476824
0.484578 0.492333 0.500088 0.507843 0.515531 0.523284 0.531037 0.538789 0.546542 0.554226
0.561975 0.569724 0.577474 0.585224 0 0.00125903 0.00251875 0.00377914 0.00504095 0.00630441
0.00823309 0.0101647 0.0120993 0.0140412 0.0159973 0.0169702 0.0179472 0.0189283 0.0199135 0.0209031
0.0218976 0.0229027 0.0239194 0.0249479 0.0259894 0.0265185 0.0270503 0.027588 0.0281323 0.028686
0.0292489 0.0298195 0.0303997 0.0309924 0.0316146 0.0319307 0.0322475 0.0325647 0.0328819 0.0332115
0.0334492 0.0336855 0.0339199 0.0341482 0.0342449 0.0343488 0.0344515 0.0345531 0.0346537 0.0347569
0.0349581 0.0351524 0.0353401 0.0355219 0.0356764 0.0357543 0.035832 0.0359089 0.0359851 0.0360644
0.0360656 0.0360668 0.036068 0.0360693 0.0360705 0.0362147 0.0363574 0.0364988 0.0366389 0.0368433
0.0369195 0.0369957 0.0370717 0.0371477 0.0372197 0.0376774 0.0381403 0.0386166 0.0391007 0.0395144
0.0399757 0.0404261 0.040875 0.041326 0.0417853 0.0422608 0.0427268 0.0431893 0.0436542 0.0441284
0.04462 0.0451024 0.0455792 0.0460612 0.0465571 0.0475888 0.0486434 0.0497098 0.0507962 0.0516136
0.0516748 0.0517359 0.051797 0.051858 0.0519191 0.0530473 0.0542011 0.0553824 0.0565866 0.0578104
0.0590826 0.0603318 0.0615613 0.0628072 0.0640468 0.0646699 0.0652829 0.0658932 0.0665022 0.0671139
0.0677396 0.0683555 0.0689625 0.0695707 0.0701849 0.0714342 0.0726933 0.0739494 0.0752006 0.0764413
0.0772146 0.0779804 0.0787475 0.0795164 0.0803777 0.080841 0.0813044 0.0817683 0.0822332 0.082699
0.0852074 0.0877007 0.0901792 0.0925997 0.0949913 0.0997519 0.104464 0.109066 0.113555 0.117902
0.124891 0.131789 0.138567 0.145227 0.15916 0.163063 0.166966 0.170869 0.17477 0.178758
0.182587 0.186416 0.190244 0.194073 0.1979 0.20564 0.213383 0.221126 0.228868 0.23661
0.244339 0.252079 0.25982 0.267561 0.275301 0.283022 0.290761 0.298501 0.306241 0.313981
0.321695 0.329434 0.337173 0.344912 0.352652 0.360359 0.368097 0.375836 0.383574 0.391313
0.399014 0.406751 0.414488 0.422226 0.429964 0.437659 0.445395 0.453131 0.460868 0.468604
0.476294 0.484029 0.491764 0.499499 0.507234 0.51492 0.522653 0.530386 0.53812 0.545853
0.553533 0.561263 0.568994 0.576725 0.584457 0 0.00127992 0.00256048 0.0038423 0.00512559
0.00641038 0.00831681 0.0102258 0.0121375 0.0140556 0.0159859 0.016958 0.0179331 0.0189115 0.0198934
0.0208788 0.021873 0.0228762 0.0238892 0.0249122 0.0259474 0.0263891 0.0268324 0.0272791 0.0277292
0.027853 0.0280026 0.0281525 0.0283024 0.0284525 0.0286028 0.0291462 0.0296939 0.0302487 0.0308124
0.031397 0.0314716 0.0315463 0.0316209 0.0316955 0.0317604 0.031978 0.0321955 0.0324129 0.0326302
0.032851 0.0329306 0.0330103 0.0330898 0.0331691 0.0332379 0.033449 0.0336593 0.0338685 0.0340744
0.0342868 0.034349 0.0344108 0.0344722 0.0345332 0.0345861 0.0345914 0.0345968 0.0346021 0.0346074
0.0346127 0.0348281 0.0350389 0.0352453 0.0354443 0.0356348 0.0356564 0.0356781 0.0356996 0.0357211
0.0357431 0.035845 0.0359459 0.0360457 0.0361469 0.0362913 0.0363851 0.0364782 0.0365707 0.0366623
0.0367514 0.036855 0.0369578 0.0370601 0.0371626 0.03731 0.0374095 0.0375088 0.0376081 0.0377082
0.037806 0.0380178 0.0382277 0.0384371 0.0386457 0.0388578 0.0390777 0.0392932 0.0395043 0.0397154
0.0399293 0.0401454 0.0403598 0.0405733 0.0407873 0.0410038 0.0412248 0.0414423 0.0416585 0.0418751
0.0420926 0.0423114 0.0425286 0.0427458 0.0429633 0.0431821 0.0436271 0.0440724 0.0445209 0.0449728
0.0454328 0.0459114 0.0463781 0.0468368 0.0472984 0.0477737 0.0482563 0.048737 0.0492177 0.0497022
0.0501947 0.051211 0.0522329 0.0532669 0.0543545 0.0554592 0.0558151 0.0561714 0.0565287 0.0568875
0.057266 0.0580654 0.0588642 0.0596627 0.0604648 0.0612751 0.0624743 0.0636496 0.0648315 0.0660285
0.0672202 0.0684464 0.0696486 0.0708282 0.0720016 0.0731672 0.0736111 0.0740542 0.0744977 0.0749417
0.0753774 0.0757015 0.0760258 0.0763502 0.0766749 0.0770083 0.0774126 0.0778171 0.078222 0.0786271
0.0790326 0.0813774 0.083724 0.0860701 0.0883859 0.0906744 0.0951832 0.0997445 0.104213 0.108539
0.112757 0.121067 0.129348 0.137566 0.145612 0.153489 0.16123 0.168972 0.176709 0.184444
0.192176 0.199903 0.207631 0.215357 0.223081 0.230803 0.237392 0.243981 0.250569 0.257156
0.26375 0.264878 0.266006 0.267135 0.268263 0.269391 0.277105 0.284819 0.292534 0.300249
0.307964 0.315671 0.323386 0.331101 0.338815 0.34653 0.354231 0.361945 0.369659 0.377374
0.385088 0.392783 0.400497 0.408211 0.415925 0.423638 0.431328 0.439041 0.446754 0.454467
0.46218 0.469865 0.477577 0.485289 0.493001 0.500714 0.508393 0.516104 0.523815 0.531526
0.539237 0.546912 0.554621 0.56233 0.57004 0.577749 0 0.00127753 0.00255577 0.00383512
0.00511576 0.00639768 0.00829925 0.0102028 0.0121091 0.0140203 0.0159396 0.0169038 0.0178698 0.0188378
0.019808 0.0207805 0.0217542 0.022733 0.0237171 0.0247057 0.0256981 0.0266888 0.0276859 0.0286912
0.0296917 0.0307002 0.0307752 0.0308503 0.0309253 0.0310001 0.0310694 0.0319918 0.0328947 0.0337771
0.0346383 0.035497 0.0359449 0.0363905 0.0368341 0.0372765 0.0377136 0.0381521 0.0385881 0.0390233
0.0394578 0.0398865 0.0403196 0.0407527 0.0411862 0.04162 0.0420544 0.0424905 0.0429256 0.0433615
0.0437984 0.0442371 0.0451152 0.0460018 0.046895 0.0477957 0.0487215 0.0496686 0.0506081 0.0515412
0.0524812 0.0534305 0.0541524 0.0548794 0.0556088 0.0563398 0.0574565 0.0576223 0.0577881 0.0579541
0.0581202 0.0582864 0.0592701 0.0602532 0.0612367 0.06222 0.0632022 0.0652024 0.0671894 0.0691657
0.0711516 0.0731349 0.0750933 0.0770779 0.0790774 0.0810809 0.0830861 0.0870983 0.0911273 0.0951245
0.0990768 0.103023 0.105864 0.108709 0.111563 0.11441 0.117756 0.122738 0.127693 0.13262
0.13752 0.142393 0.150103 0.157816 0.165526 0.173234 0.180939 0.188633 0.196333 0.204033
0.211731 0.219427 0.227114 0.234807 0.242499 0.250191 0.257881 0.265563 0.273251 0.280938
0.288624 0.296309 0.303988 0.311671 0.319353 0.327034 0.334715 0.34239 0.350069 0.357747
0.365424 0.3731 0.380772 0.388447 0.396121 0.403794 0.411466 0.419135 0.426806 0.434476
0.442145 0.449814 0.45748 0.465148 0.472814 0.48048 0.488145 0.495809 0.503473 0.511136
0.518798 0.52646 0.53412 0.541781 0.54944 0.5571 0.564759 0 0.00127409 0.0025488
0.00382396 0.00510035 0.00637796 0.00827386 0.0101719 0.0120722 0.0139756 0.015883 0.0177923 0.0197068
0.0216262 0.0235503 0.0254824 0.0264532 0.027421 0.028384 0.029342 0.0299593 0.0309777 0.0319885
0.0329887 0.0339788 0.0349571 0.035866 0.0367716 0.0376731 0.0385716 0.0394611 0.0403517 0.0412408
0.0421288 0.0430158 0.0439021 0.0456792 0.0474737 0.0492827 0.0511014 0.0529365 0.053794 0.0546528
0.0555136 0.0563765 0.0577102 0.0586077 0.0595071 0.0604084 0.0613114 0.062216 0.0640916 0.0659701
0.0678513 0.0697352 0.071621 0.0735165 0.0754041 0.0772928 0.0791828 0.0810739 0.0848699 0.0886649
0.0924645 0.0962685 0.100087 0.107785 0.115487 0.123143 0.130763 0.138398 0.146047 0.153693
0.161338 0.168981 0.176623 0.184269 0.191912 0.199553 0.207192 0.214831 0.222472 0.23011
0.237748 0.245384 0.253019 0.260658 0.268293 0.275928 0.283562 0.291195 0.298831 0.306464
0.314096 0.321728 0.329358 0.336992 0.344623 0.352253 0.359883 0.367511 0.375143 0.382771
0.3904 0.398027 0.405654 0.413283 0.42091 0.428536 0.436161 0.443786 0.451413 0.459038
0.466662 0.474286 0.481908 0.489533 0.497156 0.504779 0.5124 0.520021 0.527644 0.535264
0.542885 0.550504 0.558124 0 0.00127141 0.00254321 0.00381554 0.00508846 0.00636198 0.0101414
0.0139323 0.0177224 0.0215091 0.0252996 0.0257901 0.0262794 0.0267678 0.0272553 0.0276846 0.0290745
0.0304591 0.0318386 0.033213 0.0345848 0.0364259 0.0382575 0.0400723 0.0418829 0.0436885 0.0454997
0.0473083 0.0491183 0.050937 0.0527671 0.0546033 0.056441 0.0582815 0.0601249 0.0619709 0.0656731
0.0693892 0.0731212 0.0768681 0.0806188 0.0843891 0.0881577 0.0919264 0.0956973 0.0994705 0.107
0.114528 0.122061 0.12961 0.137173 0.144751 0.152327 0.159904 0.167482 0.175058 0.182639