# vtk DataFile Version 2.0
tracks
ASCII
DATASET POLYDATA
POINTS 2610 float
-1.001 -0.05 0.0011 -0.900789 -0.0500221 0.00109732 -0.800577 -0.0500442 0.00109465 -0.700366 -0.0500662
0.00109198 -0.600155 -0.0500881 0.00108932 -0.499943 -0.05011 0.00108666 -0.424945 -0.0501145 0.00107903
-0.349947 -0.0501565 0.0010691 -0.274949 -0.0501981 0.00105925 -0.19995 -0.0502394 0.0010495 -0.124952
-0.0502802 0.00103984 -0.0499538 -0.0502907 0.00104015 0.0250446 -0.0503018 0.00104902 0.100043 -0.050313
0.00105796 0.175041 -0.0503243 0.00106698 0.25004 -0.0503357 0.00107607 0.400037 -0.050331 0.00109248
0.550035 -0.050331 0.00110698 0.700032 -0.0503311 0.00112167 0.85003 -0.0503311 0.00113656 1.00003
-0.0503312 0.00115165 1.15003 -0.0503431 0.001159 1.30002 -0.0503501 0.00116363 1.45002 -0.050357
0.00116828 1.60002 -0.0503641 0.00117295 1.75002 -0.0503711 0.00117763 1.90002 -0.0503807 0.00118066
2.05002 -0.0503882 0.00118273 2.20001 -0.0503958 0.0011848 2.35001 -0.0504034 0.00118688 2.50001
-0.050411 0.00118895 2.65001 -0.05042 0.00119014 2.80001 -0.0504291 0.00119094 2.95001 -0.0504383
0.00119173 3.10001 -0.0504475 0.00119253 3.25001 -0.0504567 0.00119333 3.40001 -0.0504655 0.00119374
3.55001 -0.0504754 0.00119443 3.70001 -0.0504852 0.00119512 3.85001 -0.0504951 0.0011958 4.00001
-0.050505 0.00119649 4.15 -0.0505137 0.0011967 4.3 -0.0505243 0.00119748 4.45 -0.050535
0.00119826 4.6 -0.0505456 0.00119905 4.75 -0.0505562 0.00119983 4.9 -0.0505648 0.00119995
5.05 -0.0505758 0.00120089 5.2 -0.0505869 0.00120182 5.35 -0.0505979 0.00120275 5.5
-0.050609 0.00120369 5.65 -0.0506175 0.00120376 5.8 -0.0506288 0.00120487 5.95 -0.0506401
0.00120599 6.1 -0.0506515 0.0012071 6.25 -0.0506628 0.00120821 6.4 -0.0506712 0.00120825
6.55 -0.0506827 0.0012095 6.7 -0.0506942 0.00121075 6.85 -0.0507057 0.00121201 7
-0.0507173 0.00121326 7.15 -0.0507255 0.00121327 7.3 -0.0507372 0.00121464 7.45 -0.0507488
0.00121601 7.6 -0.0507605 0.00121739 7.75 -0.0507722 0.00121876 7.9 -0.0507804 0.00121875
8.05 -0.0507921 0.00122022 8.2 -0.0508038 0.0012217 8.35 -0.0508156 0.00122317 8.5
-0.0508273 0.00122465 8.65 -0.0508355 0.00122463 8.8 -0.0508472 0.00122619 8.95 -0.050859
0.00122775 9.1 -0.0508708 0.00122932 9.25 -0.0508827 0.00123089 9.4 -0.0508907 0.00123085
9.55 -0.0509538 0.0012333 9.7 -0.051074 0.00123668 9.85 -0.0512514 0.00124098 10
-0.0514858 0.00124621 -1.001 -0.05 0.0537316 -0.900807 -0.0501144 0.0535764 -0.800614 -0.0502299
0.053394 -0.700422 -0.050371 0.0531784 -0.600229 -0.0505456 0.0529278 -0.500035 -0.0507537 0.0526424
-0.425004 -0.0510141 0.0524244 -0.349973 -0.0513655 0.0521418 -0.274943 -0.0517671 0.0518805 -0.199913
-0.0522054 0.0516616 -0.124879 -0.0526307 0.0515246 -0.0498863 -0.0529232 0.0515654 0.0251066 -0.0531732
0.0517361 0.100099 -0.0534201 0.0519756 0.175092 -0.0536775 0.0522632 0.250087 -0.0539299 0.0525854
0.400077 -0.0543756 0.0532278 0.550067 -0.0548163 0.053749 0.700057 -0.0552116 0.054222 0.850048
-0.0555614 0.0546463 1.00003 -0.0558751 0.0550212 1.14971 -0.0562961 0.0553113 1.29938 -0.0566821
0.0555823 1.44905 -0.0570649 0.0558185 1.59872 -0.0574444 0.0560198 1.71792 -0.0577441 0.0561522
1.72434 -0.0577609 0.0561584 1.73076 -0.0577777 0.0561646 1.73718 -0.0577946 0.0561707 1.7436
-0.0578116 0.0561768 1.75002 -0.0578286 0.0561829 1.90002 -0.0582269 0.0563236 2.05002 -0.0586209
0.0564468 2.20001 -0.0590108 0.0565521 2.35001 -0.0593967 0.0566397 2.50001 -0.0597785 0.0567093
2.65001 -0.0601652 0.0567679 2.80001 -0.0605515 0.0568196 2.95001 -0.0609368 0.0568636 3.10001
-0.0613211 0.0568998 3.25001 -0.0617044 0.0569284 3.40001 -0.0620883 0.0569519 3.55001 -0.0624735
0.0569746 3.70001 -0.0628568 0.0569952 3.85001 -0.0632384 0.0570139 4 -0.0636182 0.0570304
4.15 -0.0639956 0.0570447 4.3 -0.0643764 0.0570598 4.45 -0.0647554 0.0570741 4.6
-0.0651325 0.0570876 4.75 -0.0655079 0.0571003 4.9 -0.0658786 0.0571108 5.05 -0.0662538
0.057123 5.2 -0.0666274 0.0571347 5.35 -0.0669993 0.057146 5.5 -0.0673696 0.0571568
5.65 -0.0677334 0.0571653 5.8 -0.0681028 0.0571759 5.95 -0.0684707 0.0571862 6.1
-0.0688371 0.0571963 6.25 -0.069202 0.057206 6.4 -0.0695596 0.0572129 6.55 -0.0699232
0.0572225 6.7 -0.0702854 0.0572319 6.85 -0.0706461 0.057241 7 -0.0710055 0.0572499
7.15 -0.0713568 0.0572558 7.3 -0.0717147 0.0572646 7.45 -0.0720711 0.0572733 7.6
-0.0724261 0.0572817 7.75 -0.0727798 0.05729 7.9 -0.0731251 0.057295 8.05 -0.0734771
0.0573033 8.2 -0.0738278 0.0573115 8.35 -0.0741772 0.0573197 8.5 -0.0745251 0.0573278
8.65 -0.0748646 0.0573325 8.8 -0.0752109 0.0573406 8.95 -0.0755557 0.0573485 9.1
-0.0758992 0.0573563 9.25 -0.0762414 0.0573639 9.4 -0.0765747 0.057368 9.55 -0.0769156
0.0573757 9.7 -0.0772558 0.0573832 9.85 -0.0775954 0.0573907 10 -0.0779345 0.0573981
-1.001 -0.05 0.106363 -0.900818 -0.0500867 0.106138 -0.800636 -0.050172 0.105865 -0.700455
-0.0502862 0.105546 -0.600274 -0.0504735 0.105006 -0.50009 -0.0507338 0.104249 -0.424995 -0.0510342
0.103671 -0.349901 -0.0513981 0.103074 -0.274806 -0.0517697 0.102548 -0.19971 -0.0520881 0.102129
-0.124605 -0.0524547 0.102035 -0.0496035 -0.0527312 0.102155 0.0253983 -0.0529557 0.102392 0.1004
-0.0531676 0.10271 0.175401 -0.0534007 0.103112 0.250411 -0.0536547 0.103598 0.400346 -0.0541244
0.104604 0.550283 -0.05459 0.105482 0.70022 -0.0550127 0.106273 0.850157 -0.0554011 0.106899
1.00009 -0.0557548 0.107361 1.15007 -0.0562469 0.107638 1.30006 -0.0565844 0.107947 1.45005
-0.0568658 0.108234 1.60003 -0.0571406 0.10849 1.75002 -0.0574089 0.108713 1.90002 -0.0577525
0.108867 2.05002 -0.0580308 0.109033 2.20001 -0.0583026 0.109182 2.35001 -0.0585716 0.109315
2.50001 -0.058838 0.10943 2.65001 -0.0591612 0.109508 2.80001 -0.0594419 0.109585 2.95001
-0.059721 0.109655 3.10001 -0.0599992 0.109717 3.25001 -0.0602765 0.109771 3.40001 -0.0605969
0.109815 3.55001 -0.0608804 0.109857 3.70001 -0.0611617 0.109897 3.85001 -0.0614411 0.109936
4 -0.0617185 0.109972 4.15 -0.0620312 0.110008 4.3 -0.0623133 0.110038 4.45
-0.0625931 0.110067 4.6 -0.062871 0.110096 4.75 -0.0631471 0.110123 4.9 -0.0634516
0.110156 5.05 -0.0637303 0.110179 5.2 -0.0640069 0.110202 5.35 -0.0642818 0.110225
5.5 -0.0645549 0.110248 5.65 -0.0648515 0.110278 5.8 -0.0651262 0.110297 5.95
-0.0653991 0.110315 6.1 -0.0656705 0.110334 6.25 -0.0659403 0.110352 6.4 -0.0662296
0.11038 6.55 -0.0665003 0.110396 6.7 -0.0667693 0.110411 6.85 -0.0670368 0.110426
7 -0.0673029 0.110441 7.15 -0.0675851 0.110469 7.3 -0.0678516 0.110482 7.45
-0.0681165 0.110494 7.6 -0.06838 0.110507 7.75 -0.068642 0.110519 7.9 -0.0689175
0.110545 8.05 -0.0691796 0.110556 8.2 -0.0694403 0.110566 8.35 -0.0696996 0.110577
8.5 -0.0699576 0.110587 8.65 -0.0702266 0.110613 8.8 -0.0704843 0.110623 8.95
-0.0707405 0.110632 9.1 -0.0709953 0.110641 9.25 -0.0712487 0.11065 9.4 -0.071511
0.110674 9.55 -0.0717644 0.110682 9.7 -0.0720171 0.11069 9.85 -0.0722691 0.110697
10 -0.0725206 0.110704 -1.001 -0.05 0.158995 -0.900796 -0.0500969 0.158769 -0.800593
-0.0502115 0.158423 -0.700392 -0.0503866 0.157687 -0.600196 -0.0506353 0.156479 -0.499992 -0.0509498
0.154644 -0.424721 -0.0515737 0.15305 -0.349437 -0.0520594 0.152143 -0.27415 -0.0524778 0.151597
-0.198861 -0.0528982 0.151322 -0.123701 -0.0532444 0.151388 -0.048782 -0.0534002 0.15156 0.0261358
-0.0535125 0.152048 0.101052 -0.0536858 0.152763 0.175967 -0.0538871 0.15357 0.250943 -0.0540738
0.154406 0.400783 -0.0543445 0.155841 0.550624 -0.0549229 0.157032 0.700468 -0.0554606 0.157799
0.850313 -0.0559162 0.158411 1.00014 -0.056337 0.158859 1.15012 -0.0568971 0.159121 1.30009
-0.0573022 0.159416 1.45007 -0.0576051 0.1597 1.60005 -0.0578232 0.159968 1.75002 -0.0580348
0.160204 1.90002 -0.0583229 0.16037 2.05002 -0.0585451 0.160549 2.20002 -0.0587537 0.160713
2.35001 -0.0589523 0.160863 2.50001 -0.0591483 0.160995 2.65001 -0.0594016 0.16109 2.80001
-0.0596123 0.161183 2.95001 -0.0598203 0.16127 3.10001 -0.0600263 0.16135 3.25001 -0.0602314
0.161422 3.40001 -0.0604797 0.161484 3.55001 -0.0606913 0.161544 3.70001 -0.0608996 0.161603
3.85001 -0.0611052 0.161661 4 -0.0613089 0.161717 4.15 -0.0615478 0.161772 4.3
-0.0617562 0.161821 4.45 -0.0619615 0.16187 4.6 -0.0621642 0.161919 4.75 -0.0623651
0.161967 4.9 -0.0625942 0.162019 5.05 -0.0627977 0.162063 5.2 -0.0629986 0.162107
5.35 -0.0631971 0.162151 5.5 -0.063394 0.162193 5.65 -0.0636139 0.162244 5.8
-0.0638123 0.162284 5.95 -0.0640084 0.162323 6.1 -0.0642025 0.162363 6.25 -0.064395
0.162401 6.4 -0.0646066 0.162451 6.55 -0.0648 0.162487 6.7 -0.0649913 0.162523
6.85 -0.0651807 0.162559 7 -0.0653687 0.162595 7.15 -0.0655724 0.162643 7.3
-0.0657607 0.162677 7.45 -0.0659472 0.16271 7.6 -0.0661319 0.162744 7.75 -0.0663153
0.162777 7.9 -0.0665115 0.162823 8.05 -0.0666949 0.162855 8.2 -0.0668765 0.162886
8.35 -0.0670566 0.162918 8.5 -0.0672354 0.162949 8.65 -0.0674246 0.162995 8.8
-0.067603 0.163026 8.95 -0.0677796 0.163055 9.1 -0.0679545 0.163085 9.25 -0.0681282
0.163114 9.4 -0.0683101 0.163159 9.55 -0.0684836 0.163187 9.7 -0.0686561 0.163215
9.85 -0.0688277 0.163243 10 -0.0689988 0.16327 -1.001 -0.05 0.211626 -0.947618
-0.0500854 0.211469 -0.894237 -0.0501759 0.211278 -0.840855 -0.0502715 0.211053 -0.787474 -0.0504121
0.210762 -0.724266 -0.0506637 0.210285 -0.679398 -0.0509484 0.209637 -0.634535 -0.0512916 0.208761
-0.589675 -0.0516395 0.20775 -0.544818 -0.0519932 0.206601 -0.499928 -0.0523541 0.205313 -0.4692
-0.0526587 0.204256 -0.438474 -0.0529737 0.203137 -0.407743 -0.0532731 0.202148 -0.377008 -0.0535582
0.201282 -0.327607 -0.0540022 0.200029 -0.287046 -0.0543529 0.199147 -0.246482 -0.0547059 0.198489
-0.205913 -0.0550651 0.198137 -0.165343 -0.055388 0.198066 -0.124888 -0.0556382 0.198255 -0.0496148
-0.0559805 0.199001 0.0256564 -0.0561557 0.199978 0.100923 -0.0563033 0.201281 0.176188 -0.0564838
0.20266 0.236901 -0.0566218 0.203604 0.239817 -0.0566278 0.203644 0.242734 -0.0566337 0.203684
0.24565 -0.0566396 0.203724 0.248566 -0.0566454 0.203763 0.251483 -0.0566513 0.203802 0.32624
-0.0567991 0.204796 0.400999 -0.0569477 0.205663 0.475759 -0.0570967 0.206402 0.55052 -0.0572742
[...]
POINT_DATA 2610
FIELD attributes 4
age 1 2610 float
0 0.0050112 0.0100224 0.0150336 0.0200448 0.025056 0.0288055 0.0325532 0.0363009 0.0400486 0.0437963
0.0475447 0.0512903 0.0550359 0.0587814 0.0625269 0.0700236 0.0775225 0.0850215 0.0925204 0.100019
0.107519 0.115019 0.122519 0.130019 0.137519 0.145019 0.152518 0.160018 0.167518 0.175018
0.182518 0.190017 0.197517 0.205017 0.212516 0.220016 0.227516 0.235016 0.242515 0.250015
0.257515 0.265015 0.272514 0.280014 0.287514 0.295014 0.302513 0.310013 0.317513 0.325012
0.332512 0.340012 0.347512 0.355012 0.362511 0.370011 0.377511 0.385011 0.39251 0.40001
0.40751 0.41501 0.42251 0.430009 0.437509 0.445009 0.452509 0.460009 0.467508 0.475008
0.482508 0.490008 0.497508 0.505007 0.512507 0.520007 0.527506 0.535004 0.542502 0.549999
0 0.00502588 0.010053 0.0150742 0.0200872 0.025092 0.0288309 0.0325638 0.0362899 0.0400092
0.0437223 0.0474282 0.0511271 0.0548242 0.0585212 0.0622199 0.0696301 0.0770657 0.084516 0.0919811
0.0994608 0.106938 0.114416 0.121896 0.129377 0.135336 0.135657 0.135978 0.136299 0.13662
0.136941 0.144441 0.15194 0.159439 0.166938 0.174436 0.181934 0.189431 0.196928 0.204425
0.211921 0.219418 0.226915 0.234412 0.241908 0.249405 0.256903 0.2644 0.271897 0.279394
0.286892 0.29439 0.301888 0.309385 0.316883 0.324381 0.33188 0.339378 0.346876 0.354374
0.361873 0.369372 0.37687 0.384369 0.391868 0.399367 0.406866 0.414365 0.421865 0.429364
0.436863 0.444363 0.451863 0.459363 0.466862 0.474362 0.481863 0.489363 0.496863 0.504364
0.511864 0.519365 0.526866 0.534367 0.541867 0.549368 0 0.00502788 0.0100576 0.0150815
0.0200987 0.0251096 0.0288564 0.0325961 0.0363265 0.0400521 0.043768 0.0474724 0.051171 0.0548685
0.0585651 0.0622613 0.069659 0.0770841 0.0845273 0.0919925 0.0994793 0.106982 0.114485 0.121992
0.1295 0.137009 0.144523 0.152031 0.159539 0.167046 0.174552 0.182065 0.18957 0.197075
0.204579 0.212084 0.219595 0.227099 0.234604 0.242108 0.249613 0.257124 0.264629 0.272134
0.279639 0.287144 0.294656 0.302161 0.309666 0.317172 0.324677 0.33219 0.339695 0.347201
0.354706 0.362212 0.369725 0.377231 0.384737 0.392243 0.399749 0.407262 0.414769 0.422275
0.429781 0.437288 0.444802 0.452308 0.459815 0.467321 0.474828 0.482343 0.48985 0.497357
0.504864 0.512371 0.519886 0.527394 0.534901 0.542408 0.549916 0 0.00502999 0.010066
0.0150991 0.0201263 0.0251486 0.0289138 0.0326674 0.0364089 0.0401401 0.0438545 0.0475492 0.0512385
0.0549267 0.0586141 0.0623051 0.0696918 0.0771149 0.0845686 0.0920385 0.0995296 0.107041 0.114553
0.12207 0.129592 0.137114 0.144643 0.152165 0.159687 0.167209 0.17473 0.182257 0.189777
0.197297 0.204817 0.212336 0.219863 0.227382 0.234901 0.242421 0.24994 0.257467 0.264986
0.272506 0.280026 0.287546 0.295073 0.302593 0.310114 0.317634 0.325154 0.332682 0.340202
0.347723 0.355244 0.362764 0.370293 0.377813 0.385334 0.392855 0.400376 0.407905 0.415426
0.422948 0.430469 0.437991 0.44552 0.453041 0.460563 0.468085 0.475607 0.483136 0.490658
0.498181 0.505703 0.513225 0.520755 0.528278 0.5358 0.543323 0.550845 0 0.00268333
0.00536834 0.00805502 0.010741 0.0139194 0.0161739 0.018428 0.0206814 0.0229339 0.0251873 0.0267274
0.0282654 0.0298005 0.0313325 0.0337892 0.0357984 0.037802 0.0398003 0.0417931 0.0437748 0.047453
0.0511328 0.054814 0.0585017 0.0614853 0.0616289 0.0617725 0.0619161 0.0620597 0.0622033 0.0658856
0.069578 0.0732804 0.0769931 0.0807159 0.0813496 0.0819833 0.082617 0.0832509 0.0838679 0.0869838
0.0901021 0.0932229 0.0963462 0.0994714 0.106991 0.114512 0.122037 0.129568 0.137103 0.144645
0.152181 0.159716 0.167252 0.174787 0.182329 0.189864 0.197398 0.204932 0.212465 0.220006
0.22754 0.235073 0.242607 0.250141 0.257682 0.265216 0.27275 0.280285 0.287819 0.295361
0.302895 0.31043 0.317964 0.325499 0.333041 0.340576 0.348111 0.355646 0.363182 0.370724
0.37826 0.385795 0.393331 0.400866 0.408409 0.415945 0.423481 0.431017 0.438553 0.446096
0.453633 0.461169 0.468705 0.476242 0.483786 0.491322 0.498859 0.506396 0.513932 0.521477
0.529014 0.536551 0.544088 0.551625 0 0.00126442 0.00252921 0.00379468 0.00506094 0.00632802
0.0101154 0.013911 0.0177181 0.0215315 0.0253273 0.0269168 0.028496 0.0300684 0.0316334 0.0330598
0.0333732 0.0336863 0.0339991 0.0343117 0.0346242 0.0364517 0.0382721 0.0400834 0.0418896 0.0436866
0.0454863 0.0472911 0.0491081 0.0509299 0.0527561 0.0527784 0.0528007 0.052823 0.0528453 0.0528677
0.0546758 0.0564872 0.0583019 0.0601198 0.0619408 0.065637 0.0693502 0.0730812 0.0768225 0.0805724
0.084335 0.088097 0.0918599 0.0956255 0.0993932 0.106927 0.114462 0.122001 0.129544 0.137092
0.144658 0.152208 0.159758 0.167309 0.174859 0.18242 0.189969 0.197519 0.205068 0.212617
0.220175 0.227724 0.235273 0.242822 0.250371 0.25793 0.265479 0.273028 0.280577 0.288127
0.295686 0.303235 0.310785 0.318335 0.325885 0.333444 0.340994 0.348544 0.356094 0.363644
0.371204 0.378754 0.386305 0.393855 0.401405 0.408966 0.416516 0.424067 0.431618 0.439168
0.446729 0.45428 0.461831 0.469382 0.476933 0.484494 0.492045 0.499596 0.507148 0.514699
0.52226 0.529812 0.537363 0.544915 0.552466 0 0.00126541 0.00253133 0.00379776 0.00506471
0.0063322 0.00822652 0.0101232 0.0120223 0.0139243 0.0158284 0.0177456 0.0196678 0.0215908 0.0235169
0.025455 0.0264257 0.0273938 0.0283574 0.0293167 0.0302757 0.0307543 0.0312313 0.0317062 0.032179
0.0327002 0.0331511 0.0336001 0.034047 0.0344921 0.0349346 0.0358443 0.0367508 0.0376531 0.0385512
0.0394405 0.040329 0.0412159 0.0421021 0.0429881 0.0438749 0.0450619 0.0462542 0.0474519 0.0486549
0.0487759 0.0495935 0.0504128 0.051234 0.052057 0.052881 0.0547097 0.0565526 0.0584069 0.0602679
0.0621292 0.0640004 0.0658727 0.067747 0.069624 0.0715049 0.0733927 0.0752755 0.0771542 0.0790347
0.0809202 0.0842458 0.0875755 0.0909075 0.0942415 0.0970127 0.0975904 0.0981682 0.098746 0.099324
0.099902 0.107491 0.115081 0.122676 0.130277 0.137883 0.145518 0.153124 0.160726 0.168327
0.175928 0.183551 0.19115 0.198747 0.206345 0.213942 0.22156 0.229157 0.236752 0.244348
0.251944 0.259561 0.267157 0.274752 0.282347 0.289943 0.297558 0.305153 0.312748 0.320343
0.327939 0.335552 0.343147 0.350742 0.358336 0.365932 0.373543 0.381138 0.388732 0.396327
0.403922 0.411532 0.419127 0.426721 0.434315 0.441909 0.449518 0.457113 0.464706 0.4723
0.479895 0.487502 0.495096 0.502689 0.510283 0.517876 0.525483 0.533076 0.540669 0.548262
0.555856 0 0.00126278 0.00252623 0.0037907 0.00505636 0.00632318 0.00823316 0.0101451 0.0120608
0.0139799 0.0159042 0.0178214 0.0197514 0.0216941 0.0236495 0.0256269 0.0266263 0.0276264 0.0286268
0.0296263 0.0306374 0.0308846 0.0311318 0.0313786 0.0316234 0.0318135 0.0325631 0.0333003 0.0340244
0.0347349 0.0354372 0.0358836 0.0363282 0.0367712 0.0372128 0.0376483 0.038085 0.0385187 0.03895
0.0393806 0.039809 0.0402403 0.0406715 0.0411029 0.0415348 0.0419696 0.0424044 0.0428387 0.0432735
0.0437093 0.0441473 0.0450232 0.0459091 0.0468061 0.0477125 0.0486365 0.049272 0.0499073 0.0505442
0.0511835 0.0519516 0.0522242 0.0524971 0.0527702 0.0530435 0.0533174 0.0542707 0.0552209 0.0561733
0.0571314 0.0580904 0.0590578 0.0600248 0.0609929 0.0619629 0.0629343 0.0648955 0.0668518 0.0688031
0.0707582 0.072696 0.0746227 0.0765615 0.0785125 0.0804699 0.0824341 0.0863874 0.090337 0.0942636
0.0981703 0.102084 0.109915 0.117715 0.125446 0.133112 0.140784 0.148488 0.156168 0.163843
0.171514 0.179183 0.186869 0.194537 0.202202 0.209866 0.217529 0.225208 0.23287 0.240531
0.248191 0.255851 0.263525 0.271185 0.278843 0.2865 0.294158 0.301828 0.309485 0.317141
0.324796 0.332451 0.340117 0.347772 0.355426 0.363079 0.370732 0.378394 0.386047 0.393699
0.40135 0.409 0.41666 0.42431 0.43196 0.439609 0.447258 0.454914 0.462562 0.47021
0.477857 0.485504 0.493157 0.500804 0.508449 0.516094 0.523738 0.531388 0.539032 0.546676
0.55432 0.561963 0 0.0012644 0.00252945 0.00379514 0.00506149 0.00632908 0.0082461 0.0101655
0.0120882 0.0140172 0.0159583 0.0169284 0.0179013 0.0188773 0.0198566 0.020839 0.0218265 0.0228221
0.0238266 0.0248401 0.025864 0.0263815 0.0269007 0.0274235 0.0279499 0.0284826 0.0287669 0.0290526
0.0293405 0.0296309 0.0297298 0.030034 0.0303397 0.0306462 0.0309525 0.0312673 0.0313521 0.031437
0.031522 0.0316072 0.0316719 0.0317146 0.0317572 0.0317999 0.0318426 0.0318827 0.0320489 0.0322149
0.0323808 0.0325465 0.0327135 0.0328895 0.0330652 0.0332404 0.0334127 0.0335407 0.033648 0.0337547
0.0338608 0.033966 0.0340727 0.0341769 0.0342796 0.0343811 0.0344816 0.0345647 0.0346239 0.0346827
0.0347411 0.0347992 0.0348557 0.0349538 0.0350514 0.0351486 0.0352452 0.0353396 0.0354618 0.0355825
0.0357017 0.0358199 0.0360128 0.0361125 0.0362118 0.0363108 0.0364096 0.0364988 0.0365823 0.0366659
0.0367495 0.0368331 0.0369833 0.0371087 0.0372339 0.0373589 0.0374838 0.0376067 0.0378248 0.0380412
0.0382577 0.0384747 0.0386882 0.0389054 0.0391218 0.0393386 0.0395558 0.0397728 0.0399926 0.0402108
0.0404292 0.0406479 0.0408673 0.0410864 0.0413052 0.0415243 0.0417441 0.0419663 0.0421895 0.0424112
0.0426331 0.0428556 0.0430791 0.043384 0.0436902 0.0440004 0.0443148 0.0444691 0.0446528 0.044837
0.0450216 0.0452068 0.0453935 0.0458751 0.04635 0.0468247 0.0472954 0.0477898 0.0483006 0.0488024
0.0493068 0.049816 0.0503417 0.0503427 0.0503437 0.0503448 0.0503458 0.0503468 0.0514066 0.0525035
0.0536489 0.0547657 0.0559032 0.0570995 0.0582758 0.0594561 0.0606418 0.0618271 0.0619851 0.062143
0.0623008 0.0624587 0.0626235 0.0634182 0.0642057 0.0649921 0.0657812 0.0668358 0.0670338 0.0672316
0.0674294 0.0676271 0.0678246 0.0690236 0.070199 0.0713699 0.0725392 0.0737005 0.0748405 0.0760049
0.0771721 0.078341 0.0795075 0.0801627 0.0808182 0.0814757 0.0821349 0.0828404 0.0844792 0.0861113
0.08773 0.0893355 0.0909247 0.0954325 0.099917 0.10434 0.108672 0.112884 0.121107 0.129268
0.137359 0.14538 0.153287 0.161056 0.168822 0.176586 0.184347 0.192105 0.19412 0.196134
0.198149 0.200163 0.202182 0.207921 0.21366 0.219399 0.225138 0.230876 0.238622 0.246375
0.254128 0.261882 0.269636 0.277372 0.285125 0.292879 0.300634 0.308388 0.316116 0.32387
0.331624 0.339378 0.347133 0.354853 0.362607 0.370361 0.378116 0.385871 0.393584 0.401337
0.409091 0.416845 0.4246 0.432307 0.44006 0.447813 0.455566 0.46332 0.471021 0.478773
0.486526 0.494279 0.502032 0.509727 0.517478 0.52523 0.532981 0.540733 0.548422 0.55617
0.563918 0.571667 0.579417 0 0.00125411 0.00250917 0.00376553 0.00502334 0.00628272 0.00821401
0.010148 0.0120847 0.0140285 0.0159866 0.0169593 0.0179359 0.0189164 0.0199011 0.0208898 0.0218842
0.0228893 0.0239061 0.0249347 0.0259762 0.0265047 0.0270363 0.0275746 0.0281197 0.0286737 0.029239
0.0298119 0.0303976 0.0309969 0.0316227 0.0319412 0.0322593 0.0325783 0.0328983 0.033233 0.0332867
0.0333404 0.0333942 0.0334479 0.0334941 0.0335816 0.0336684 0.0337536 0.0338379 0.0339049 0.0340819
0.0342554 0.0344254 0.0345917 0.0347632 0.0349015 0.0350373 0.0351706 0.0353007 0.0354169 0.0355408
0.035664 0.0357867 0.0359077 0.0360225 0.036137 0.0362485 0.0363571 0.0364653 0.0366072 0.036717
0.0368266 0.036936 0.0370452 0.0371451 0.0373225 0.0374999 0.0376799 0.0378624 0.0382118 0.0384728
0.0387384 0.0390012 0.0392614 0.0395154 0.039977 0.0404321 0.0408837 0.0413322 0.0417759 0.0422331
0.0426737 0.0431178 0.0435649 0.0440151 0.0444875 0.0449543 0.0454314 0.045913 0.0464028 0.0471238
0.0478599 0.0486057 0.0493644 0.0494636 0.0499153 0.0503663 0.0508163 0.0512652 0.051717 0.0528431
0.0539672 0.0551152 0.056283 0.0574884 0.0587523 0.0599911 0.0612158 0.062448 0.063676 0.064373
0.0650644 0.0657554 0.0664437 0.0672432 0.0677687 0.0682949 0.0688215 0.0693487 0.0698752 0.0701429
0.0704109 0.0706791 0.0709473 0.0712266 0.0715773 0.0719279 0.0722784 0.0726287 0.0729786 0.0736011
0.0742182 0.0748352 0.0754506 0.0760639 0.077302 0.0785401 0.0797862 0.0810329 0.0822785 0.0847594
0.0872473 0.0897089 0.0921385 0.0945301 0.0978873 0.10123 0.104513 0.107738 0.114473 0.115134
0.115792 0.116447 0.117099 0.117748 0.126268 0.134696 0.142987 0.151093 0.159018 0.166782
0.174581 0.182379 0.190176 0.197972 0.20572 0.213515 0.221309 0.229104 0.236899 0.244635
0.252428 0.260221 0.268014 0.275808 0.283536 0.291327 0.29912 0.306912 0.314706 0.322426
0.330217 0.338009 0.345801 0.353593 0.361306 0.369096 0.376887 0.384678 0.392469 0.400176
0.407965 0.415754 0.423543 0.431334 0.439034 0.446821 0.454609 0.462397 0.470186 0.477881
0.485666 0.493452 0.501239 0.509026 0.516715 0.524499 0.532283 0.540067 0.547852 0.555535
0.563314 0.571094 0.578874 0.586655 0 0.00125903 0.00251874 0.00377913 0.00504094 0.0063044
0.00823309 0.0101647 0.0120992 0.0140411 0.0159972 0.0169702 0.0179471 0.0189282 0.0199134 0.020903
0.0218974 0.0229024 0.023919 0.0249474 0.0259887 0.0265177 0.0270494 0.0275868 0.0281309 0.0286844
0.0292471 0.0298175 0.0303971 0.0309892 0.0316107 0.0319265 0.0322428 0.0325594 0.032876 0.033205
0.0334341 0.0336619 0.0338879 0.0341083 0.0342054 0.0343152 0.0344237 0.0345311 0.0346372 0.0347463
0.0349416 0.0351304 0.035313 0.0354899 0.0356434 0.0357262 0.0358088 0.0358906 0.0359716 0.0360506
0.0360757 0.0361006 0.0361256 0.0361506 0.0361772 0.0362989 0.0364197 0.0365395 0.0366584 0.0368251
0.0369019 0.0369787 0.0370554 0.037132 0.0372046 0.0376622 0.0381259 0.0386029 0.0390876 0.0395011
0.039962 0.0404118 0.0408613 0.0413128 0.041771 0.042245 0.0427094 0.0431724 0.0436374 0.0441088
0.0445983 0.0450782 0.0455568 0.0460407 0.046535 0.0475663 0.0486186 0.0496827 0.0507611 0.0511663
0.0513089 0.0514514 0.0515938 0.0517361 0.051879 0.0530054 0.0541526 0.0553296 0.05653 0.0577517
0.0590138 0.0602599 0.0614977 0.0627443 0.0639846 0.0646088 0.0652186 0.0658246 0.0664285 0.0670398
0.0676632 0.068278 0.0688927 0.0695078 0.0701216 0.0710668 0.0720144 0.0729607 0.0739053 0.0757398
0.0758618 0.0759838 0.0761059 0.076228 0.0763502 0.0765804 0.0768102 0.07704 0.0772699 0.0775057
0.0785159 0.0795285 0.0805444 0.0815642 0.0825885 0.0850739 0.0875475 0.0900065 0.0924142 0.0947977
0.09957 0.104275 0.108885 0.113401 0.117804 0.121066 0.12431 0.127527 0.130718 0.136258
0.14092 0.145524 0.150069 0.154559 0.158991 0.166752 0.174525 0.182296 0.190067 0.197836
0.20558 0.213348 0.221116 0.228884 0.236652 0.244385 0.252151 0.259918 0.267685 0.275453
0.283177 0.290943 0.29871 0.306477 0.314244 0.321961 0.329726 0.337493 0.34526 0.353027
0.360736 0.368502 0.376267 0.384034 0.3918 0.399503 0.407268 0.415033 0.422798 0.430564
0.438261 0.446025 0.453789 0.461553 0.469318 0.477009 0.484771 0.492534 0.500297 0.50806
0.515747 0.523508 0.531269 0.53903 0.546792 0.554473 0.562229 0.569987 0.577745 0.585504
0 0.00127993 0.0025605 0.00384233 0.00512563 0.00641043 0.00831688 0.0102258 0.0121375 0.0140557
0.015986 0.0169581 0.0179332 0.0189117 0.0198936 0.020879 0.0218732 0.0228763 0.0238893 0.0249122
0.0259473 0.026397 0.0268483 0.0273032 0.0277616 0.0278826 0.0280262 0.02817 0.0283139 0.0284579
0.0286021 0.0291454 0.0296929 0.0302473 0.0308106 0.0313947 0.0313974 0.0314002 0.031403 0.0314058
0.0314085 0.0314687 0.0315288 0.0315888 0.0316489 0.0317026 0.0319311 0.0321594 0.0323876 0.0326157
0.0328475 0.0329331 0.0330186 0.033104 0.0331892 0.0332622 0.0334673 0.0336717 0.0338747 0.0340747
0.0342808 0.0343349 0.0343888 0.0344423 0.0344955 0.034543 0.0345616 0.0345801 0.0345986 0.034617
0.034635 0.0348442 0.035049 0.0352497 0.0354424 0.0356255 0.0356541 0.0356826 0.035711 0.0357393
0.0357685 0.0358574 0.0359456 0.036033 0.0361216 0.0362469 0.0363478 0.0364479 0.0365474 0.0366459
0.0367415 0.0368596 0.0369767 0.0370932 0.0372099 0.0373886 0.0374699 0.0375509 0.0376323 0.0377141
0.0377946 0.0380065 0.0382166 0.0384268 0.0386362 0.0388477 0.039067 0.0392819 0.0394924 0.0397034
0.039917 0.0401327 0.0403468 0.0405595 0.0407727 0.0409895 0.0412107 0.0414285 0.0416442 0.0418602
0.0420775 0.0422959 0.0425129 0.0427292 0.042946 0.0431648 0.0436099 0.0440549 0.0445031 0.0449548
0.0454149 0.0458926 0.0463574 0.0468162 0.047278 0.0477529 0.048236 0.0487175 0.0492 0.0496869
0.0501824 0.0511976 0.0522208 0.0532628 0.0543655 0.0554828 0.0556818 0.055881 0.0560805 0.0562804
0.0564859 0.0574423 0.0583978 0.0593527 0.0603096 0.0612788 0.0624764 0.0636595 0.064849 0.0660417
0.0672247 0.0684393 0.0696312 0.070813 0.0719849 0.0731503 0.0733218 0.073493 0.0736644 0.0738359
0.0740106 0.0742273 0.0744438 0.0746602 0.0748769 0.0750943 0.0758769 0.0766615 0.0774481 0.0782366
0.079022 0.0813621 0.0837052 0.0860417 0.0883568 0.0906649 0.0952356 0.0998613 0.104332 0.108673
0.112914 0.121282 0.129615 0.137863 0.145934 0.153831 0.161583 0.169332 0.177078 0.184821
0.19256 0.194763 0.196966 0.199168 0.201371 0.203573 0.209106 0.214639 0.220172 0.225704
0.231237 0.238964 0.246698 0.254432 0.262166 0.269901 0.27762 0.285354 0.293088 0.300823
0.308558 0.31627 0.324004 0.331739 0.339474 0.34721 0.354914 0.362649 0.370383 0.378119
0.385854 0.393552 0.401286 0.409021 0.416756 0.424491 0.432184 0.439917 0.447651 0.455386
0.463121 0.470808 0.478541 0.486274 0.494008 0.501742 0.509424 0.517156 0.524889 0.532621
0.540354 0.54803 0.555759 0.563489 0.57122 0.578951 0 0.00127754 0.0025558 0.00383517
0.00511583 0.00639778 0.0082994 0.0102029 0.0121093 0.0140206 0.0159399 0.0169041 0.0178702 0.0188382
0.0198085 0.020781 0.0217548 0.0227336 0.0237176 0.0247062 0.0256986 0.0266893 0.0276862 0.0286913
0.0296916 0.0306998 0.0307782 0.0308566 0.0309351 0.0310132 0.0310853 0.032004 0.0329032 0.0337823
0.0346402 0.0354957 0.0359433 0.0363886 0.0368319 0.0372741 0.0377108 0.0381491 0.0385849 0.0390197
0.0394539 0.0398824 0.0403153 0.0407482 0.0411815 0.0416151 0.0420494 0.0424853 0.0429202 0.0433559
0.0437926 0.0442311 0.0451084 0.0459942 0.0468867 0.0477865 0.0487116 0.0496567 0.0505951 0.0515271
0.0524664 0.0534145 0.0540452 0.0546798 0.0553162 0.055954 0.0568784 0.0571546 0.0574312 0.0577081
0.0579853 0.0582628 0.0592445 0.0602247 0.0612055 0.0621863 0.0631684 0.0651653 0.0671497 0.069127
0.0711133 0.0730941 0.0750536 0.0770364 0.0790355 0.0810386 0.0830494 0.087084 0.0911266 0.0951293
0.0990868 0.103044 0.105087 0.107132 0.109183 0.111237 0.113583 0.119452 0.125279 0.131066
0.136812 0.142518 0.150235 0.157952 0.165666 0.173377 0.181086 0.188786 0.196489 0.204191
0.211891 0.21959 0.227283 0.234979 0.242673 0.250367 0.25806 0.265748 0.273439 0.281128
0.288816 0.296504 0.304189 0.311875 0.319559 0.327243 0.334927 0.342608 0.350289 0.35797
0.36565 0.373329 0.381006 0.388684 0.396361 0.404037 0.411712 0.419386 0.42706 0.434733
0.442406 0.450078 0.457749 0.465419 0.473089 0.480758 0.488427 0.496095 0.503762 0.511429
0.519095 0.52676 0.534424 0.542087 0.549751 0.557414 0.565076 0 0.00127412 0.00254885
0.00382404 0.00510046 0.00637811 0.00827406 0.0101721 0.0120725 0.0139759 0.0158834 0.0177928 0.0197073
0.0216267 0.0235507 0.0254827 0.0264535 0.0274213 0.0283843 0.0293424 0.0299755 0.0309908 0.0319984
0.0329955 0.0339825 0.0349577 0.0358665 0.0367721 0.0376735 0.0385719 0.0394613 0.0403518 0.0412407
0.0421284 0.0430152 0.0439014 0.0456783 0.0474726 0.0492812 0.0510993 0.0529339 0.0537106 0.0544882
0.0552676 0.0560487 0.0572064 0.0582027 0.0592013 0.0602021 0.0612052 0.0622101 0.0640849 0.0659625
0.0678428 0.0697258 0.0716108 0.0735074 0.0753941 0.077282 0.0791713 0.0810618 0.0848574 0.0886522
0.0924519 0.0962566 0.100079 0.107795 0.115516 0.123188 0.130814 0.138454 0.146109 0.153761
0.161411 0.16906 0.176707 0.184359 0.192007 0.199654 0.207299 0.214943 0.22259 0.230234
0.237877 0.245518 0.253159 0.260803 0.268444 0.276084 0.283723 0.291361 0.299002 0.30664
0.314278 0.321914 0.32955 0.337188 0.344824 0.352459 0.360094 0.367727 0.375363 0.382996
0.390629 0.398261 0.405892 0.413526 0.421157 0.428788 0.436418 0.444047 0.451678 0.459307
0.466936 0.474564 0.482191 0.48982 0.497447 0.505073 0.512699 0.520324 0.52795 0.535575
0.543199 0.550823 0.558446 0 0.00127144 0.00254327 0.00381562 0.00508857 0.00636213 0.0101416
0.0139326 0.0177227 0.0215095 0.0253002 0.0257923 0.0262832 0.0267732 0.0272623 0.0276939 0.0290821
0.030465 0.0318428 0.0332154 0.0345855 0.0364268 0.0382585 0.0400733 0.041884 0.0436896 0.0455007
0.0473092 0.0491192 0.0509376 0.0527674 0.0546034 0.0564407 0.0582809 0.0601239 0.0619695 0.0656707