# vtk DataFile Version 2.0
sampleSurface
ASCII
DATASET POLYDATA
POINTS 2021 float
-0.500032 0 0.11501 -0.499951 3.38813e-21 0.0392727 -0.789037 8.47033e-21 0.120673 -0.500013 -1.35525e-20
0.193965 1.00003 0 0.0485099 1.00003 0 0.0478584 0.475202 0 0.0353615
0.250044 1.41878e-20 0.0305359 0.2506 -5.42101e-20 0.117067 0.251301 0 0.203885 0.364989
0 0.203772 1.75002 0 0.113255 1.75002 0 0.0564279 2.50001 6.89146e-18
0.059229 2.21354 0 0.250758 2.50001 0 0.252875 3.25001 -3.47927e-17 0.0598775
3.25001 -1.69407e-21 0.253888 4.00001 5.60566e-18 0.0599857 4 0 0.253986 4.75
-1.79088e-17 0.0599988 4.75 8.47033e-22 0.253998 5.5 -2.79246e-17 0.0599999 5.5 -4.23516e-22
0.253999 6.25 1.01187e-17 0.06 6.25 0 0.254 7 2.93732e-17 0.06
7 0 0.254 7.75 -2.65294e-17 0.06 7.75 0 0.254 8.5
1.8923e-17 0.06 8.5 0 0.254 9.25 -2.88552e-17 0.06 9.25 -5.29396e-23
0.254 10 -2.64698e-23 0.254 10 0 0.06 -4.24997 0 0.0599042
-5 0 0.0599861 -5 0 0.253986 -4.24997 0 0.253912 -3.49995
0 0.0593815 -3.49994 0 0.253441 -2.74993 0 0.0570188 -2.74991 0
0.251316 -1.99991 0 0.0492276 -1.99987 0 0.242776 -1.24992 -1.69407e-21 0.03
-1.24985 1.23328e-17 0.222327 -1.24989 3.38813e-21 0.125756 -0.874924 2.08116e-17 0.03 -0.874929
0 0.122356 -0.124951 -8.47033e-22 0.03 -0.499941 0 0.03 -0.124922 -8.47033e-22
0.0385291 1.00021 0 0.231242 0.625368 0 0.203537 0.25004 -2.11758e-22 0.03
1.75003 0 0.247334 1.92873 1.69407e-21 0.441438 2.50001 0 0.447397 3.25
-1.69407e-21 0.447898 4 0 0.447986 4.75 0 0.447997 5.5 -4.23516e-22
0.447999 6.25 4.23516e-22 0.447999 7 0 0.448 7.75 -1.05879e-22 0.448
8.5 0 0.448 9.25 0 0.448 10 -2.64698e-23 0.448 -5
-8.47033e-22 0.447985 -4.24997 0 0.447919 -3.49993 0 0.4475 -2.74988 0
0.445609 -1.9998 6.77626e-21 0.437758 -1.24969 1.61411e-17 0.417681 -1.24976 -6.77626e-21 0.31973
-0.875161 7.70461e-18 0.216228 -0.875403 0 0.312476 -0.499924 -8.74138e-19 0.250039 -0.312433
0 0.250037 -0.312436 0 0.200025 -0.499924 0 0.200026 0.250062 3.38813e-21
0.24921 0.250039 -1.69407e-21 0.250046 0.250032 0 0.300069 0.437526 3.05948e-18 0.300066
0.625026 0 0.30005 1.00072 -8.23994e-18 0.326497 1.00196 0 0.423 1.75013
0 0.439575 1.75013 1.77877e-20 0.448245 1.00135 0 0.537141 1.00002 0
0.61834 1.74999 2.71051e-20 0.633055 2.49999 -3.38813e-21 0.641448 3.25 0 0.641907
4 -1.69407e-21 0.641985 4.75 -8.47033e-22 0.641996 5.5 -4.23516e-22 0.641998 6.25
0 0.641999 7 0 0.641999 7.75 0 0.642 8.5 5.29396e-23
0.642 9.25 -5.29396e-23 0.642 10 0 0.642 -5 0 0.641985
-4.24997 -1.69407e-21 0.641926 -3.49993 0 0.641557 -2.74988 0 0.639897 -1.99989
6.77626e-21 0.63382 -1.25099 2.55465e-18 0.614606 -1.25 -2.71051e-20 0.515981 -0.878244 0
0.50789 -0.875961 2.71051e-20 0.459694 -0.875609 0 0.410432 -0.498432 0 0.400603
-0.498071 -1.70762e-18 0.413126 -0.450805 0 0.413349 -0.45095 0 0.400955 0.250009
1.89735e-19 0.412703 0.25 2.71051e-20 0.425212 0.296872 1.00289e-18 0.425187 0.343754 -2.71051e-20
0.425153 0.343763 0 0.400146 0.250006 0 0.400175 1.00162 1.41488e-17 0.520353
-2 4.23516e-22 0.820145 -2.09502 -2.11758e-22 0.830091 -2 0 0.829497 -1.25123
0 0.813251 -1.25126 0 0.713737 -1.25101 6.77626e-21 0.62198 1.00059 0
0.714169 1.00094 0 0.809205 1.75018 0 0.82775 2.5 0 0.835521
3.25 0 0.835917 4 -1.69407e-21 0.835986 4.75 -8.47033e-22 0.835996 5.5
0 0.835998 6.25 0 0.835999 7 0 0.835999 7.75 0
0.836 8.5 0 0.836 9.25 0 0.836 10 0 0.836
-5 -8.47033e-22 0.835986 -4.24997 0 0.835935 -3.49995 0 0.835616 -2.74991
0 0.83419 -0.970118 0 0.703382 -0.87455 0 0.699864 -0.874264 -2.71051e-20
0.649852 -0.874033 -2.71051e-20 0.599873 -0.49698 0 0.599585 -0.497345 -9.21572e-19 0.612046
-0.450014 0 0.611892 -0.44938 2.71051e-20 0.599454 -2.00002 0 0.84097 -1.84639
-3.38813e-21 1.02215 -1.25185 0 1.01276 -0.896512 -3.38813e-21 0.900668 -0.908183 6.77626e-21
0.801076 -0.904022 -1.86347e-20 1.00093 0.624925 0 0.799916 0.249931 0 0.799891
0.249978 0 0.899916 0.249997 0 0.999939 0.999987 0 0.999957 1.75061
-2.1684e-19 1.02409 2.50003 0 1.0296 3.25 -1.69407e-21 1.02993 4 0
1.02999 4.75 0 1.03 5.5 0 1.03 6.25 2.11758e-22 1.03
7 0 1.03 7.75 0 1.03 8.5 5.29396e-23 1.03 9.25
0 1.03 10 0 1.03 -5 0 1.02999 -4.24998 0
1.02994 -3.49996 -8.47033e-22 1.02968 -2.74996 0 1.02849 -2.00026 0 1.02458
-0.87482 0 0.799893 -0.87491 0 0.899919 -0.49993 0 0.799862 -0.499958
7.6233e-19 0.849889 -0.312476 0 0.849885 -0.312472 0 0.799853 -1.25001 8.04681e-21
1.19601 -0.499979 5.29396e-23 1.10737 -0.731886 2.11758e-22 1.19997 -0.499981 0 1.19997
-0.124987 0 0.999933 -0.477759 -5.29396e-23 0.999933 -0.487556 -1.45584e-22 1.09995 0.250008
0 1.19997 1 0 1.19997 1.7507 0 1.22203 2.50003 -1.35525e-20
1.22368 3.25 0 1.22394 4 0 1.22399 4.75 4.23516e-22 1.224
5.5 0 1.224 6.25 2.11758e-22 1.224 7 0 1.224 7.75
1.05879e-22 1.224 8.5 0 1.224 9.25 0 1.224 10 2.64698e-23
1.224 -5 4.23516e-22 1.22399 -4.24999 -4.23516e-22 1.22395 -3.49998 0 1.22374
-2.75001 0 1.22279 -2.00077 0 1.21965 -1.24997 4.23516e-22 1.19997 -0.499969
-5.29396e-23 0.999933 -0.874942 0 0.999936 -0.499979 -1.32349e-23 1.09995 -2.75001 0
1.36967 -3.18711 4.23516e-22 1.41751 -2.75001 4.23516e-22 1.4171 -2.00072 3.38813e-21 1.29692
-2.00065 0 1.41474 -1.25823 6.35275e-21 1.40014 -0.980416 0 1.39998 -0.499986
0 1.39998 0.250009 0 1.39998 1 0 1.39998 1.75054 0
1.41682 2.50002 -1.35525e-20 1.41776 3.25 0 1.41796 4 4.23516e-22 1.41799
4.75 0 1.418 5.5 0 1.418 6.25 0 1.418 7
0 1.418 7.75 0 1.418 8.5 0 1.418 9.25 0
1.418 10 0 1.418 -5 0 1.41799 -4.24999 0 1.41797
-3.49999 -4.23516e-22 1.41781 -1.24998 0 1.39998 -2.80392 1.32349e-23 1.61143 -2.75
-1.32349e-23 1.6114 -2.0003 0 1.60983 -1.25396 2.64698e-23 1.60004 -1.12789 2.64698e-23
1.59999 -0.49999 1.05879e-22 1.59999 0.250008 0 1.59999 1.00001 4.23516e-22 1.59999
1.75038 0 1.61122 2.50002 0 1.61184 3.25 -4.23516e-22 1.61197 4
-4.23516e-22 1.61199 4.75 0 1.612 5.5 0 1.612 6.25 0
1.612 7 0 1.612 7.75 5.29396e-23 1.612 8.5 2.64698e-23 1.612
9.25 -1.32349e-23 1.612 10 -1.32349e-23 1.612 -5 0 1.61199 -4.24999
0 1.61198 -3.49999 0 1.61187 -1.24999 0 1.59999 -2.75 -1.32349e-23
1.63714 -2.64195 -2.11758e-22 1.80559 -2.00012 -8.47033e-22 1.80492 -1.25741 0 1.80004
-1.19082 -7.94093e-23 1.8 -0.499992 1.05879e-22 1.79999 0.250006 2.11758e-22 1.79999 1
0 1.8 1.75023 0 1.80561 2.50001 3.38813e-21 1.80592 3.25 0
1.80599 4 0 1.806 4.75 2.11758e-22 1.806 5.5 0 1.806
6.25 0 1.806 7 0 1.806 7.75 0 1.806 8.5
2.64698e-23 1.806 9.25 0 1.806 10 0 1.806 -5 0
1.806 -4.25 -2.11758e-22 1.80599 -3.49999 0 1.80594 -2.75 -1.05879e-22 1.8057
-1.24999 0 1.8 -2 -4.76456e-22 1.98532 -1.20969 -1.65436e-23 2 -0.499993
0 2 0.250006 0 2 1 0 2 1.75 0
2 2.5 0 2 3.25 0 2 4 0 2
4.75 -1.05879e-22 2 5.5 0 2 6.25 0 2 7
5.29396e-23 2 7.75 0 2 8.5 0 2 9.25 0
2 10 -1.32349e-23 2 -5 2.21817e-18 2 -4.25 1.05879e-22 2
-3.49999 0 2 -2.74999 0 2 -1.99999 -5.29396e-23 2 -1.24999
3.30872e-24 2 0.0956945 -5.42101e-20 0.203879 0.0632748 0 0.203876 0.0625511 0
0.250042 -0.403589 6.77626e-21 0.40138 -0.405779 7.7927e-19 0.38799 -0.406379 -6.77626e-21 0.375196
-0.499567 -1.35525e-20 0.375265 0.250006 -6.50521e-19 0.375144 0.156247 0 0.375155 0.156237
9.41901e-19 0.400212 0.203129 0 0.400201 0.249796 0 0.59991 0.249852 -1.0842e-19
0.587433 0.202953 0 0.587417 0.202888 6.50521e-19 0.599901 0.625121 -6.77626e-21 0.499953
0.717439 6.77626e-21 0.504955 0.625095 6.77626e-21 0.475379 0.343596 1.0842e-19 0.599918 0.343639
0 0.574939 0.296781 0 0.574964 0.249926 0 0.574977 0.62499 -4.2826e-18
0.549927 0.624917 4.55365e-18 0.599925 0.203133 0 0.412725 -0.449046 0 0.587135
-0.496581 5.42101e-20 0.587161 0.625036 -9.32414e-18 0.40006 0.625067 1.13164e-18 0.450032 0.249704
0 0.624881 0.155871 0 0.599866 0.155839 1.95156e-18 0.624853 0.249886 1.35525e-20
0.749873 0.062411 0 0.749846 0.0624478 -4.26227e-18 0.799869 -0.312472 0 0.749804
-0.499901 -3.38813e-21 0.749824 -0.691227 0 0.30453 -0.499912 3.02221e-18 0.300065 -0.875784
-3.11708e-18 0.361353 -0.592465 -2.71051e-20 0.40036 -0.499854 0 0.350135 -0.687111 1.35525e-20
0.350117 -0.68656 -2.71051e-20 0.40021 0.437526 -1.35525e-20 0.400108 0.437522 6.77626e-21 0.350086
0.250015 -2.51399e-18 0.35011 0.625027 3.38813e-21 0.350064 -0.592287 0 0.425286 -0.498048
0 0.425444 -0.873902 5.42101e-18 0.54992 -0.496663 0 0.574746 -0.591532 0
0.574798 -0.591729 0 0.599734 -0.149108 0 0.406489 -0.149477 -5.29396e-23 0.403592
-0.149678 0 0.406489 -0.451876 -2.1684e-18 0.499977 -0.451579 0 0.487563 -0.498366
0 0.487552 -0.498515 -1.0842e-19 0.499993 0.437553 0 0.450075 0.437532 -6.07153e-18
0.425113 0.254621 -1.25361e-19 0.496697 0.26485 -5.42101e-20 0.498023 0.264831 0 0.496529
0.254636 -2.30393e-19 0.49668 0.570241 0 0.499932 0.437665 -2.71051e-20 0.474991 0.437859
-2.71051e-20 0.49988 0.437372 -1.0842e-19 0.599915 0.249722 3.25261e-19 0.649874 0.43732 -5.42101e-20
0.649899 0.624872 0 0.649914 0.624883 -3.95734e-18 0.699913 0.43734 6.83047e-18 0.699894
0.249817 0 0.699869 -0.592227 0 0.624743 -0.498071 -2.71051e-20 0.624658 -0.499769
6.77626e-21 0.69979 -0.687025 0 0.699824 -0.150854 -1.03677e-18 0.599678 -0.151059 -6.77626e-21
0.605522 -0.127339 6.77626e-21 0.605681 -0.127867 0 0.599582 -0.406139 -4.40457e-20 0.699754
-0.406113 0 0.674749 -0.499634 0 0.674774 -0.18433 -4.23516e-22 0.674527 -0.163626
-4.23516e-22 0.678958 -0.165125 0 0.674537 -0.171868 4.23516e-22 0.674524 -0.14924 3.34737e-19
0.400169 -0.125737 0 0.400165 -0.12551 0 0.393854 -0.149076 -2.11758e-22 0.393877
-0.499925 -2.61564e-18 0.325088 -0.406241 0 0.325087 -0.4062 0 0.300069 -0.124901
0 0.300062 -0.218633 -3.27294e-18 0.299673 -0.218596 1.35525e-20 0.324664 -0.124851 0
0.325085 -0.126061 7.86047e-19 0.406473 -0.0785222 1.30782e-18 0.400166 -0.126118 3.38813e-21 0.41275
-0.0785648 0 0.412729 0.240678 1.0842e-18 0.500153 0.252614 -2.1684e-19 0.498317 0.252386
1.0842e-19 0.496231 0.241035 0 0.496114 0.228892 -1.35525e-20 0.496204 0.228835 6.77626e-21
0.498715 0.229819 2.71051e-20 0.500074 0.25248 0 0.499935 0.240657 -1.6263e-19 0.500957
0.264863 0 0.500154 0.264689 0 0.500951 0.437443 0 0.549896 0.437406
[...]
POINT_DATA 2021
FIELD attributes 2
p 1 2021 float
2.00767 1.43651 2.36861 4.35998 0.0604203 0.0583062 -4.20302 -6.04144 -7.68998 -6.16166 -4.31764
0.496548 0.464376 0.111758 0.326796 0.174972 0.00330985 0.0271645 0.00542201 0.0143536 0.0095987
0.0155635 0.0048956 0.00998832 0.000307418 0.00462447 -0.00124483 0.00243043 -0.000930726 0.00222471 -0.000353146
0.00221216 0.000638845 0.00338563 0 0 0.614051 0.6096 0.609448 0.613766 0.634917
0.634021 0.704827 0.701697 0.926743 0.923458 1.64054 1.76208 1.77732 2.23525 2.47569
-4.05688 1.36652 -4.1097 0.652466 -0.108022 -6.03122 0.57243 0.442656 0.189915 0.0293184
0.00731057 0.00945485 0.00565749 0.00114622 -0.000503702 -0.000191803 -0.000346649 0.00269013 0 0.609016
0.612996 0.631608 0.692668 0.902363 1.95597 2.02866 3.12723 3.87151 7.31984 -3.304
-1.0542 4.57998 -5.7233 -5.71538 -2.2553 0.342181 0.829269 1.03251 0.927782 0.521661
0.51746 0.848771 0.881314 0.427772 0.167467 0.0231333 0.00232809 0.0065073 0.00439821 0.000520727
-0.000861054 -0.000348957 -0.00022056 0.00287772 0 0.608325 0.611806 0.627974 0.679988 0.861948
1.84994 2.13565 5.13334 5.58725 4.82476 32.5678 36.4527 52.0206 45.976 4.76062
4.90652 3.39398 3.42977 2.68823 4.09081 0.84204 0.807932 0.787469 0.80522 1.39652
1.78542 1.84517 0.992636 0.48267 0.349988 0.127803 0.0136275 0.000460976 0.00692822 0.00617591
0.00265384 0.00124528 0.00155041 0.0021132 0.00352194 0 0.60745 0.610326 0.623543 0.665119
3.2515 3.74988 4.68174 4.75964 34.3567 32.6961 44.621 50.7614 0.80139 0.781141
0.939676 1.70201 2.62662 1.14183 0.0805209 -4.8789 -5.29917 -2.74749 -0.227865 0.191284
0.0733226 -0.00553012 -0.0109469 -0.000971709 0.000909562 -0.00111825 -0.00164057 -0.000748837 0.000357423 0.0013124
0 0.60648 0.608704 0.618718 0.649149 0.740089 2.74615 1.73176 5.18846 3.29233
0.557809 -0.6738 0.697741 0.310939 0.312821 0.142864 -1.70898 0.673352 0.281428 -0.973831
-0.393336 0.0980927 0.0647753 -0.00296398 -0.0109374 -0.00105554 0.00149649 -0.000287837 -0.000802603 5.58125e-05
0.00110335 0.00159071 0 0.605516 0.607095 0.613873 0.633032 0.676636 0.692506 0.823346
1.15872 0.324411 0.621811 0.613097 0.618188 0.656389 0.625509 0.566559 0.383925 0.0595949
-0.564159 -0.377301 0.046312 0.0592808 -0.00437907 -0.0151571 -0.0043855 -0.000727922 -0.00202795 -0.00229798
-0.00127196 -0.000105132 0.000458139 0 0.604653 0.60564 0.609454 0.565904 0.606421 0.606461
0.590448 0.495454 0.42695 0.0772771 -0.435201 -0.348528 -0.000878856 0.048045 -0.00793168 -0.0188008
-0.00646844 -0.00172509 -0.0026295 -0.00271789 -0.00159232 -0.000358929 0.000276616 0 0.603974 0.604468
0.605913 0.494948 0.605482 0.594908 0.57014 0.457825 0.427505 0.0866266 -0.36498 -0.332648
-0.0273942 0.042957 -0.00833322 -0.0198812 -0.00721772 -0.00213889 -0.0029488 -0.00297504 -0.00180261 -0.000541818
0.000140852 0 0.603536 0.603686 0.603572 0.599077 0.456703 0.563874 0.425354 0.0897258
-0.342621 -0.327513 -0.0356854 0.0414266 -0.00842934 -0.0202975 -0.00757431 -0.00236633 -0.00310773 -0.00307305
-0.00185815 -0.000577193 0.000127222 8.14217e-05 0.603382 0.603404 0.60273 0.596559 0.563364 0.444414
-10.2818 -11.1397 -11.7872 70.4654 60.0457 43.8616 29.6651 2.93528 1.71251 4.4176
5.06856 4.13287 4.54821 6.17895 5.39335 2.02415 1.73417 2.1403 2.96 3.66893
3.36155 3.96357 2.24288 1.91048 6.05036 56.2495 39.4436 1.93413 2.25977 3.62954
4.72725 2.14699 -4.52832 -11.2022 -9.84102 -3.18634 8.46469 7.00224 11.8991 4.74804
17.4606 20.8133 9.13466 10.5147 2.57956 1.49996 1.00295 1.65571 19.7273 36.9104
5.61143 39.6429 20.3272 18.8178 -58.7166 -58.5018 -58.7133 68.4598 68.3723 47.559
44.7936 3.40839 3.10849 -5.03842 0.340751 0.189704 -5.08814 2.58701 3.98134 3.94103
2.85651 1.82369 1.75443 1.62287 0.947169 0.756761 -1.36419 17.0039 28.1051 13.2964
7.27596 -56.4959 -56.2924 -58.7588 -58.6771 13.8785 19.1169 18.4852 -46.2507 -42.6953
-44.3726 -45.1065 -58.2519 -57.5364 -57.5239 -57.6627 16.6059 15.8739 11.9969 -29.3638
-27.9758 -45.3755 -37.0668 -58.8489 -45.9905 -58.6671 -48.0692 11.0008 4.28976 10.5193
11.8614 9.09643 9.37306 9.66228 4.51401 11.1228 0.901011 0.733665 3.71569 3.47055
4.06355 4.31716 47.7523 68.3425 -58.7965 -56.4106 6.50361 11.1279 -51.3943 -52.6929
-58.3859 4.4814 6.29608 6.47617 6.5066 -31.4088 -40.0086 -49.413 -29.775 64.4046
60.7887 41.6528 41.4024 -44.0592 -56.0357 -11.5186 -8.57086 -0.431997 -24.5286 -42.4544
42.9817 44.3086 64.3067 66.4775 -51.7567 -49.9169 -50.6862 0.307983 -9.68486 -12.7182
-11.6911 -21.6682 -24.8698 -57.8265 44.0376 21.85 22.144 11.7003 12.0167 12.1907
13.1415 22.0211 44.5028 10.7962 12.4589 11.8993 13.239 -58.5923 -58.5833 -58.0691
-58.0564 -57.4129 -56.7854 -56.4153 45.8165 66.8275 -58.2452 -58.515 -58.9113 -58.1516
-29.7673 -34.9557 -32.6487 -13.6667 -1.56148 -4.87259 -50.5001 -50.1449 -57.9498 -13.0691
0.160037 0.0804399 -13.2967 -58.2273 -56.7644 -51.2224 -12.4203 -10.162 -3.67165 1.57659
-7.38891 -5.62799 -18.6622 -38.3682 -41.43 -36.3306 -52.2418 -53.2397 -52.9845 -4.15853
-17.5808 -18.3214 -4.76981 -56.0635 -51.9881 -56.0969 -3.59301 -9.31309 -16.6202 -11.5852
67.5295 46.867 -54.1339 -54.2928 -56.7371 -56.6359 -56.1453 -53.6237 -57.0338 -53.1712
-55.9243 -58.895 -59.0253 -59.0671 -32.1026 -77.0335 -96.0466 -101 -103.25 -102.812
-48.5636 -50.1946 -54.2221 -48.2349 -50.0429 -98.2211 -99.4678 -71.3193 -34.3741 -58.401
-59.2208 -58.9012 -56.231 -57.1124 -57.1504 -57.0768 -57.5029 7.1259 6.05182 8.93796
-56.0102 -55.6971 -55.9158 -55.4121 -55.5341 -55.7921 -56.195 -55.0487 -55.0334 2.02536
1.81621 0.696347 1.20467 4.16532 4.54087 1.30234 -55.8021 -56.2816 -56.9161 5.7968
6.63339 2.7768 0.867511 3.13653 -32.0356 -38.0529 -37.3035 -31.6365 -54.4538 -54.9536
-57.8942 -57.5812 -54.8896 -55.7432 -38.9232 -43.2673 -43.0927 -36.958 -46.0665 -50.1034
-53.173 -53.3218 -52.1818 123.589 131.449 146.793 146.881 -58.0632 -56.1414 -56.4061
-57.7724 -57.5801 4.4704 2.19764 3.10326 4.69564 -9.76816 -3.95549 -5.89405 -8.92232
-11.8012 -39.0562 -36.8893 -25.6184 -27.328 -32.1315 -39.0749 -24.8076 -24.8462 31.1037
41.2828 52.1234 37.9276 23.0722 19.2823 34.2596 26.1499 0.670367 0.828549 1.98727
34.053 24.8855 17.0475 22.0959 2.86987 3.81462 4.45645 4.566 3.66535 6.64817
6.74943 4.56418 -9.34957 -8.23293 -1.37635 -10.23 14.6852 9.14592 10.821 -54.6184
-56.8739 -57.0047 -54.8131 -82.5835 -81.3015 -84.5438 -47.8787 -12.6751 -18.319 -27.572
-55.9773 -52.8098 -55.3296 -56.4056 -74.0277 -73.7472 -58.4015 -59.6646 -49.4517 -47.9382
-50.1904 -50.3874 3.74059 3.80308 -0.630544 6.00289 5.65227 4.65735 5.33048 5.74549
6.1487 -54.1002 -53.631 -68.6859 -67.8954 78.9913 94.0833 85.6787 112.098 106.406
88.8299 90.1467 161.845 164.175 153.353 121.622 98.4029 104.344 97.2969 117.633
-12.8671 -26.9263 -31.2375 -5.82703 -26.115 -52.0565 -41.7215 -6.30419 93.7249 101.223
86.8049 78.2729 96.6982 88.3953 107.607 148.466 158.216 167.406 165.143 106.623
102.9 159.635 -32.6299 -8.00439 -38.2988 -28.5263 -47.7013 140.204 140.073 115.596
110.577 110.237 115.502 139.597 138.98 108.127 167.227 170.832 172.004 172.295
173.707 186.646 186.835 174.814 173.266 -32.8806 -40.0086 -32.8404 -56.3986 -50.7518
-42.6126 -41.8702 -40.6092 -25.4875 2.78703 -2.56829 -0.613541 173.386 175.33 187.188
172.358 186.504 187.148 175.218 172.169 179.598 181.762 170.11 168.878 179.894
167.876 171.094 182.42 -52.6316 -37.8804 -36.6413 -55.6957 -55.7555 -55.8456 -36.4267
-46.2643 -36.5089 -36.9474 -45.8526 -45.8232 -3.41881 -9.2817 -25.177 -25.2027 -32.821
-43.4707 -32.8729 -32.5855 -42.9139 -21.1439 -18.8597 -20.5965 115.414 140.134 138.12
139.029 114.672 109.3 170.035 169.909 170.477 167.739 136.394 108.391 113.568
137.144 -57.0873 -54.1196 -52.7767 -52.6074 -55.6591 -46.1278 90.1003 93.3515 78.5689
-14.9169 -6.19693 -6.73009 -20.837 54.544 56.4056 70.0028 73.6528 -55.8494 -55.0847
-55.3814 -55.8393 -57.0009 -57.2426 -57.3814 -57.4877 -56.0329 -56.1254 -55.6879 -55.799
-134.823 -109.295 -77.7247 -95.5943 -97.9552 -99.0672 -99.0591 -83.1718 -78.9449 -92.5195
-70.7971 -85.855 -133.41 -136.86 -128.69 -96.1785 -96.9774 -54.6835 -54.1289 -54.8174
-55.9457 -56.2386 -53.7624 -53.677 6.81048 7.35503 13.7557 16.3901 13.8504 -50.9004
-50.1801 -45.699 -45.9278 -46.075 -45.8727 -45.8457 -45.6293 12.9063 12.6431 16.8412
8.24182 8.04292 9.61894 10.1023 10.1281 8.49283 7.3043 8.06092 12.389 15.7103
13.7226 0.757951 -0.864953 -3.05345 7.02039 6.19488 5.06867 6.40228 7.12776 -52.4564
-53.321 -56.2882 -55.623 -48.6211 -49.579 13.6434 15.6105 17.0212 -46.7379 -49.6397
-49.7708 -46.4523 -45.6112 11.337 11.08 11.1224 9.53301 6.83209 -7.01671 -5.77871
5.46378 6.28593 6.24521 -48.4975 -48.8177 146.473 148.497 140.909 136.951 113.313
118.282 125.695 121.162 184.604 185.881 182.18 178.422 -55.6177 -55.5532 -52.9616
-52.8701 169.635 183.357 185.057 172.993 174.449 186.571 171.028 182.143 169.624
179.278 -16.9217 -19.1882 -23.9436 -28.2003 -26.8014 -22.9116 -8.68159 -3.36337 -3.80858
-8.99022 -14.0073 -13.6366 -1.03851 -9.06753 -9.9369 -15.0238 -18.1514 -8.23032 -8.98288
-24.9576 -20.2346 -9.65656 -0.781878 -3.05222 6.06301 -3.45137 6.04571 6.80653 3.3565
3.89386 4.61681 4.18001 7.71244 6.09242 3.94241 5.79882 -18.9059 -15.9895 -26.3174
-21.4528 -56.3946 -58.1377 -58.723 -58.5792 3.02284 3.09131 5.04897 5.53238 4.28788
4.89 -14.5783 -40.3142 -57.2503 -65.4573 -53.2734 -31.9293 -58.8921 10.7405 10.1954
10.2187 -2.46025 0.198523 11.9643 17.22 9.49563 23.7541 20.6374 10.4472 1.67176
6.81506 8.30621 13.1023 11.543 6.7723 -53.4454 -44.0125 -49.8695 -13.0711 -43.8985
-24.9611 -60.6086 -83.7002 108.64 92.6734 106.17 108.321 112.715 111.841 172.88
172.004 173.255 172.571 171.272 185.962 185.963 185.197 -57.8966 -58.1196 174.485
-56.1413 -56.1398 -57.082 -57.2472 -56.9549 -55.6989 -150.584 -137.462 -137.326 -134.094
-158.243 -137.212 -132.802 -133.125 -119.722 -115.217 -80.5953 -73.1547 -73.4681 -70.8689
-119.491 -121.214 -56.7249 -55.7206 -54.6152 -57.0991 9.51259 7.14649 10.6829 8.22861
11.0021 12.0332 12.4066 13.3821 14.1758 -55.2446 -54.3258 -56.2615 -55.0565 -53.0947
-52.8336 -52.942 -54.8804 -5.9851 -0.489427 -1.42363 -4.6103 9.17339 9.54354 6.79593
5.84173 7.56029 9.54204 8.78381 6.71093 1.27991 8.13878 7.02431 6.86776 8.67437
10.4033 9.22177 12.0599 11.337 -54.6888 -55.11 -55.1141 -55.2382 -55.3899 -55.2473
-54.7552 -52.6959 -54.0143 -54.023 -54.0463 -51.0354 -52.4203 -73.7448 -72.9792 -57.593
-59.8748 -77.5452 -68.3841 -77.4891 -123.935 -128.528 -136.154 -79.4866 -97.5445 -107.391
-80.3469 -98.8862 128.737 113.569 148.509 151.734 -54.5166 -53.7231 -54.8525 -54.845
-53.0623 143.888 167.874 146.146 -48.9352 -48.1032 -48.5366 -49.3075 -49.1127 -49.1308
-49.0578 -47.5868 -8.08657 -9.37263 -11.9026 -11.0169 -14.8617 -17.0328 -19.1729 -16.9607
-17.8847 74.8156 85.5145 -58.516 51.2498 76.5372 65.0041 75.4847 60.9442 13.6201
10.61 45.4538 36.4679 8.31501 9.1611 3.62329 5.28533 5.09398 7.76308 6.69632
7.06386 7.44839 8.25019 -52.6983 -52.2539 -51.9881 -52.5819 -1.03104 -0.512822 -1.08452
2.26251 5.69817 5.14059 7.09629 6.52438 -50.9042 -51.3021 -51.0267 138.187 136.263
171.185 184.778 189.084 189.37 186.86 185.337 -55.6851 -55.3867 -55.7092 -55.5284
-53.1005 -45.5581 -46.3813 -47.0053 -46.2165 -46.5452 -47.8309 -56.0471 -56.0722 -56.6615
-57.2378 -56.9289 -56.9132 -57.0719 -56.6789 -54.9728 -115.733 -111.369 -135.542 -112.168
-134.309 -122.414 -123.893 -133.789 -56.1501 -57.4046 -55.8713 -54.4473 13.7152 12.3353
11.3152 12.5013 12.7216 13.3716 -36.7407 -36.2296 -31.4209 -30.8804 -41.7246 -42.2578
-46.4233 -46.0336 -51.0887 -51.1373 -45.5096 -52.1068 -51.7455 -6.18562 -0.953982 -11.4448
0.680772 2.11794 8.01137 7.54362 7.86861 4.29703 10.6819 7.35039 8.76292 10.2276
10.8715 10.764 10.9055 12.6739 12.344 2.39182 12.4067 14.8024 15.9693 3.87635
3.38613 3.12232 3.80189 -58.8829 -58.0387 -52.8665 -56.4804 -44.6419 -44.1171 -40.1002
-44.444 -45.8509 -49.8967 -51.0966 -49.5493 -49.7676 -49.5308 -47.0567 -52.1794 -47.1681
4.19767 -48.2428 -49.525 140.985 131.789 129.39 129.432 129.812 114.32 106.891
188.661 188.134 187.138 -50.6584 -50.9818 -1.28627 -0.717696 0.313523 -29.5708 -30.4914
186.058 186.893 180.37 183.33 181.877 181.506 -33.2226 -29.0592 -3.04816 -7.67437
-5.80119 -3.08798 -24.6832 -13.5302 -10.113 -13.318 -19.7537 -4.58302 80.8561 56.5087
60.8457 21.0644 21.4316 68.0081 110.699 10.1501 7.18898 -2.26482 -2.52305 6.85095
7.64764 7.93697 6.12462 6.57871 24.5401 16.3033 -0.403265 19.7663 -1.75428 3.47927
8.17618 8.09708 68.0144 110.202 -54.642 -55.762 18.124 91.4387 108.957 100.401
92.4515 108.068 109.18 126.589 134.33 143.204 -55.7413 81.4469 73.408 50.197
12.5851 18.6458 16.8169 -75.4087 -56.8079 -56.8013 -56.8047 -55.281 -55.2022 -59.9398
-55.4705 -59.9188 -60.5019 23.4373 -6.54886 5.97355 10.5938 10.8219 -1.41611 -1.52042
-2.63485 -55.5139 -54.0228 -1.01523 2.54225 2.8495 -57.4856 -56.916 -56.0806 7.96975
7.65945 4.12961 -56.5644 41.6798 49.4603 -67.1104 -59.2978 17.2073 14.7205 8.97473
6.89316 5.0556 8.49872 6.94492 -54.0772 -54.044 -52.8621 -52.7795 -55.7799 -52.1532
-51.6698 -54.4229 -54.7279 -54.7166 -54.2069 -55.2983 -54.8682 -54.7297 -54.4717 4.48441
-51.6606 -57.7191 -56.6858 100.509 129.136 144.708 155.169 168.09 162.92 160.731
148.733 188.243 -52.7319 -53.6429 -51.9208 -7.36133 -10.3914 -3.21277 -49.6206 -49.6492
-49.6132 -49.8787 -53.0876 -47.1969 -48.705 -47.4887 -47.0094 -47.7074 28.877 20.308
-112.192 -119.788 -119.644 -120.281 -120.625 -73.9248 -96.5505 -73.9281 13.4044 17.0538
-10.9208 12.0465 11.4888 -5.51366 -7.0873 4.06804 2.46007 0.951239 0.606783 -0.664828
-2.28043 -1.02786 4.11378 4.50484 0.569983 2.8131 4.47631 2.37851 1.29432 13.3401
17.6587 -50.0115 5.48841 12.7654 8.51354 16.4739 8.49351 11.183 14.1982 15.9685
4.7787 4.99288 6.5013 5.91732 -2.08237 -4.00792 -6.26536 -6.16562 4.90505 1.68829
4.39198 9.44727 15.3264 16.522 8.23496 5.68428 3.06191 2.74757 7.18955 10.6532
11.3063 11.9476 11.0883 5.72331 -3.53497 5.59813 -2.77758 3.22908 -3.54408 2.46894
11.0109 8.33853 12.3923 7.00569 9.48704 11.4151 10.811 10.5102 7.96409 8.6346
9.15841 9.40923 7.93369 7.38155 7.3972 6.04263 -5.4569 -8.96703 -7.18661 6.52252
5.92206 7.99464 6.28992 -9.19175 -10.9585 1.10488 7.08193 5.91222 -1.65625 5.69483
-137.621 -138.164 -138.313 10.2704 -55.5519 -54.5205 -54.5709 5.23947 9.90455 5.31974
8.38621 11.0023 -55.7093 -55.6758 -55.0464 -54.7417 -60.9059 -60.4043 -60.8937 -68.9452
-115.952 -119.776 -113.645 -120.5 -48.8808 -49.4057 -47.3971 -47.1006 -47.3595 -47.0763
-14.6524 -14.6515 -17.0673 -52.505 -52.3209 -52.0812 5.1391 1.51283 4.99093 4.96161
-51.882 -52.3121 -52.4349 141.742 151.098 -55.1825 -50.6476 13.3796 13.9568 11.5742
7.20471 11.4563 18.7211 4.23026 3.34552 4.68267 3.68824 -53.2043 -57.2215 -57.0194
-55.27 7.77189 15.0754 11.1174 4.09845 4.24879 10.0901 8.83887 9.52663 8.63447
10.4155 12.4315 10.2804 5.83337 8.59808 8.24418 -54.0457 -50.0641 -48.4591 91.2459
80.2811 84.2402 66.7763 72.7596 -4.8024 -2.91931 0.32869 -1.45012 7.64857 8.16033
7.69897 8.28926 8.04627 7.54117 7.08918 116.844 106.803 94.7619 -73.8527 -57.2777
-56.0055 -54.8472 -54.6988 -54.2985 -54.2859 163.48 139.761 161.889 161.999 7.71711
4.59999 10.6853 11.3949 7.21565 8.54899 7.44577 6.91405 6.16785 2.75744 -2.38658
4.77996 5.42094 6.0051 4.37359 6.68099 14.4759 9.06906 -12.8211 15.6056 14.2835
7.63541 10.7469 16.0055 9.1567 -12.6621 -13.5844 -11.6561 -2.83921 -4.86659 -13.1645
7.24338 5.30849 -14.6971 -16.3166 7.21101 4.86733 -1.00518 -3.88603 -54.9241 -45.8826
13.1391 1.94975 0.279426 -0.115564 6.0133 5.56958 6.50402 6.09386 6.0503 5.63385
0.358378 6.30103 6.93158 -0.383762 5.75365 4.77318 7.22818 6.71981 6.14274 106.218
86.6887 122.033 123.819 5.22387 4.95138 3.49231 -55.1341 5.15347 6.13762 5.91578
-9.57091 -12.541 -0.193834 6.29877 6.79006 5.42287 8.10222 5.23767 6.92191 3.92485
36.8843 -53.1191 -55.1494 -54.6513 -54.6122 -54.6804 -2.9131 -4.28353 -12.5644 -12.4335
-12.4558 -3.41744 9.41764 3.14643 5.99354 7.08235 2.6134 2.39733 0.123979 -0.842818
-10.8632 -5.17973 -4.07298 -11.2393 -4.13529 -12.1161 5.64228 -11.3617 -12.3913 -2.42452
1.24093 6.40863 6.42147 5.84681 8.89316 0.304666 6.71302 -3.09101 -1.07259 4.38492
-0.720315 7.28009 4.89391 -9.8862 9.06197 -0.614455 6.20158 1.06622 1.45826 4.85578
5.21513 4.29484 5.01355 3.14762 7.70035 8.94944 5.50136 6.1152 1.0012 3.47821
11.1199 5.56659 0.852263 -0.527037 3.6634 173.148 176.973 176.118 181.03 169.13
168.1 172.681 179.945 180.938 69.3617 73.5777 54.696 -56.1073 -41.4546 -38.5729
-36.8321 -30.9171 -43.7696 -51.8244 -51.4715 -55.2348 -46.753 100.733 154.48 162.117
155.257 146.998 -56.5492 -56.1428 -56.4869 -56.2526 -55.7721 -56.2119 -54.8629 -55.1673
-55.0086 4.05153 -0.235767 171.241 -18.3213 186.018 190.266 189.413 -51.2663 -47.2379
182.755 185.886 186.062 -16.4075 -51.0102 85.2729 -54.9926 -55.1217 -55.3775 -55.3426
-49.4324 189.386 -2.32292 189.506 185.525 189.099 7.38025 -64.2434 110.571 109.877
-55.8566 4.60576 -51.6787 -52.9714 -51.7904 -138.575 138.744 -54.8423 159.195 -51.9106
-120.705 -120.623 72.2898 6.99048 2.63103 168.088 164.701 -15.4045 139.845 191.11
190.005 185.41 189.456 190.794 189.789 172.797 191.165 186.785 189.959 191.2
0.614067 0.609606 0.634906 0.703958 0.91771 1.62112 2.20638 -3.98534 1.3536 0.025571
-4.09814 -5.8673 0.40925 0.0903318 -0.00169612 0.0052265 0.0103326 0.00575597 0.00115257 -0.000450517
-0.000197115 0.000318746 0.00120117 0.000625504 -54.0134 -52.2873 -133.975 -134.53 -47.9214 -48.3731
-49.0309 -47.7641 -48.2576 -48.9575 -49.6039 -47.276 -95.1151 -74.7105 -48.7517 -47.1289
-74.149 -48.6757 -51.1202 -51.4758 -50.5943 -99.5415 -111.18 -129.473 -119.774 -119.595

U 3 2021 float
20.0063 -0.0456369 -0.215592 20.0439 -0.0306337 -0.0739364 19.9292 -0.0063572 -0.0964296 19.9358 -0.0556546
-0.606093 20.0174 -0.059213 0.0399519 20.0177 -0.0591078 0.039985 20.1679 -0.0780297 0.0575155
20.2326 -0.086179 0.065555 20.2781 -0.091125 0.149275 20.2906 -0.115778 0.263614 20.2096
-0.117096 0.208437 19.9545 -0.0472122 0.019855 19.9967 -0.0545644 0.0183602 20.0037 -0.0528468
0.00697007 19.8532 -0.024642 0.0176568 19.852 -0.021414 0.014119 20.0059 -0.0525634 0.00188407
19.8543 -0.0199986 0.00964185 20.0043 -0.0517526 0.000505782 19.8534 -0.01835 0.00874315 20.0026
-0.0509368 -2.46648e-05 19.8521 -0.0168006 0.00844247 20.0011 -0.0501819 -0.000303798 19.851 -0.0154679
0.00820923 19.9995 -0.0495025 -0.000483255 19.8499 -0.014307 0.00799593 19.9979 -0.0488497 -0.000607321
19.8488 -0.0132475 0.00781093 19.9962 -0.0482088 -0.000703566 19.8477 -0.0122845 0.00761526 19.9946
-0.0475814 -0.000737451 19.8467 -0.011402 0.00752917 19.9926 -0.0469324 -0.000826044 19.8456 -0.0104737
0.00725492 19.8452 -0.00999103 0.00695627 19.9923 -0.0467237 -0.00086518 19.9996 -0.000340813 3.12684e-05
20 0 0 20 0 0 19.9996 -0.000340879 7.86281e-05 19.9983
-0.000786803 9.3782e-05 19.9984 -0.00079641 0.000278474 19.9942 -0.00154837 0.000367853 19.9941 -0.00151325
0.000999074 19.9788 -0.00279284 0.00033466 19.9796 -0.0031148 0.00357343 19.9465 -0.0054244 -0.00906009
19.9363 -0.00619093 -0.00797619 19.939 0.00231694 -0.0143277 19.9278 -0.00537986 -0.0295062 19.9062
0.00530847 -0.0609989 20.2332 -0.0724839 0.0018907 20.0485 -0.0287974 -0.0565867 20.2353 -0.0715625
0.00517494 19.9273 -0.0891262 0.0304498 20.0246 -0.118347 0.0818105 20.2323 -0.0861476 0.0650362
19.8551 -0.0298637 0.02338 19.3078 0.119769 0.0100585 19.3399 0.117237 0.0111865 19.3679
0.111529 0.0112503 19.389 0.107239 0.0119363 19.4072 0.103456 0.0124427 19.4242 0.0998733
0.0126214 19.4401 0.0964894 0.0126306 19.455 0.093306 0.0125627 19.4693 0.090271 0.0124264
19.4824 0.0873948 0.0123163 19.4971 0.0845887 0.0120369 19.5058 0.0831502 0.0117779 20
0 0 19.9996 -0.000341454 0.000137239 19.9985 -0.00079487 0.000489962 19.9945 -0.00151935
0.00171793 19.9801 -0.00323665 0.00602717 19.9198 -0.0087414 0.0107149 19.9195 -0.00791311 0.000982736
19.8501 -0.0164937 -0.0957467 19.7934 -0.02043 -0.0681609 19.9559 -0.0509337 -1.02361 20.4352
-0.0677437 -0.933201 20.2161 -0.0532116 -0.50829 19.9307 -0.0556719 -0.635572 20.3093 -0.163316
0.452865 20.3097 -0.164197 0.456322 20.1006 -0.249616 0.581221 19.9905 -0.238843 0.29966