# vtk DataFile Version 2.0
sampleSurface
ASCII
DATASET POLYDATA
POINTS 2021 float
-0.500032 0 0.11501 -0.499951 3.38813e-21 0.0392727 -0.789037 8.47033e-21 0.120673 -0.500013 -1.35525e-20
0.193965 1.00003 0 0.0485099 1.00003 0 0.0478584 0.475202 0 0.0353615
0.250044 1.41878e-20 0.0305359 0.2506 -5.42101e-20 0.117067 0.251301 0 0.203885 0.364989
0 0.203772 1.75002 0 0.113255 1.75002 0 0.0564279 2.50001 6.89146e-18
0.059229 2.21354 0 0.250758 2.50001 0 0.252875 3.25001 -3.47927e-17 0.0598775
3.25001 -1.69407e-21 0.253888 4.00001 5.60566e-18 0.0599857 4 0 0.253986 4.75
-1.79088e-17 0.0599988 4.75 8.47033e-22 0.253998 5.5 -2.79246e-17 0.0599999 5.5 -4.23516e-22
0.253999 6.25 1.01187e-17 0.06 6.25 0 0.254 7 2.93732e-17 0.06
7 0 0.254 7.75 -2.65294e-17 0.06 7.75 0 0.254 8.5
1.8923e-17 0.06 8.5 0 0.254 9.25 -2.88552e-17 0.06 9.25 -5.29396e-23
0.254 10 -2.64698e-23 0.254 10 0 0.06 -4.24997 0 0.0599042
-5 0 0.0599861 -5 0 0.253986 -4.24997 0 0.253912 -3.49995
0 0.0593815 -3.49994 0 0.253441 -2.74993 0 0.0570188 -2.74991 0
0.251316 -1.99991 0 0.0492276 -1.99987 0 0.242776 -1.24992 -1.69407e-21 0.03
-1.24985 1.23328e-17 0.222327 -1.24989 3.38813e-21 0.125756 -0.874924 2.08116e-17 0.03 -0.874929
0 0.122356 -0.124951 -8.47033e-22 0.03 -0.499941 0 0.03 -0.124922 -8.47033e-22
0.0385291 1.00021 0 0.231242 0.625368 0 0.203537 0.25004 -2.11758e-22 0.03
1.75003 0 0.247334 1.92873 1.69407e-21 0.441438 2.50001 0 0.447397 3.25
-1.69407e-21 0.447898 4 0 0.447986 4.75 0 0.447997 5.5 -4.23516e-22
0.447999 6.25 4.23516e-22 0.447999 7 0 0.448 7.75 -1.05879e-22 0.448
8.5 0 0.448 9.25 0 0.448 10 -2.64698e-23 0.448 -5
-8.47033e-22 0.447985 -4.24997 0 0.447919 -3.49993 0 0.4475 -2.74988 0
0.445609 -1.9998 6.77626e-21 0.437758 -1.24969 1.61411e-17 0.417681 -1.24976 -6.77626e-21 0.31973
-0.875161 7.70461e-18 0.216228 -0.875403 0 0.312476 -0.499924 -8.74138e-19 0.250039 -0.312433
0 0.250037 -0.312436 0 0.200025 -0.499924 0 0.200026 0.250062 3.38813e-21
0.24921 0.250039 -1.69407e-21 0.250046 0.250032 0 0.300069 0.437526 3.05948e-18 0.300066
0.625026 0 0.30005 1.00072 -8.23994e-18 0.326497 1.00196 0 0.423 1.75013
0 0.439575 1.75013 1.77877e-20 0.448245 1.00135 0 0.537141 1.00002 0
0.61834 1.74999 2.71051e-20 0.633055 2.49999 -3.38813e-21 0.641448 3.25 0 0.641907
4 -1.69407e-21 0.641985 4.75 -8.47033e-22 0.641996 5.5 -4.23516e-22 0.641998 6.25
0 0.641999 7 0 0.641999 7.75 0 0.642 8.5 5.29396e-23
0.642 9.25 -5.29396e-23 0.642 10 0 0.642 -5 0 0.641985
-4.24997 -1.69407e-21 0.641926 -3.49993 0 0.641557 -2.74988 0 0.639897 -1.99989
6.77626e-21 0.63382 -1.25099 2.55465e-18 0.614606 -1.25 -2.71051e-20 0.515981 -0.878244 0
0.50789 -0.875961 2.71051e-20 0.459694 -0.875609 0 0.410432 -0.498432 0 0.400603
-0.498071 -1.70762e-18 0.413126 -0.450805 0 0.413349 -0.45095 0 0.400955 0.250009
1.89735e-19 0.412703 0.25 2.71051e-20 0.425212 0.296872 1.00289e-18 0.425187 0.343754 -2.71051e-20
0.425153 0.343763 0 0.400146 0.250006 0 0.400175 1.00162 1.41488e-17 0.520353
-2 4.23516e-22 0.820145 -2.09502 -2.11758e-22 0.830091 -2 0 0.829497 -1.25123
0 0.813251 -1.25126 0 0.713737 -1.25101 6.77626e-21 0.62198 1.00059 0
0.714169 1.00094 0 0.809205 1.75018 0 0.82775 2.5 0 0.835521
3.25 0 0.835917 4 -1.69407e-21 0.835986 4.75 -8.47033e-22 0.835996 5.5
0 0.835998 6.25 0 0.835999 7 0 0.835999 7.75 0
0.836 8.5 0 0.836 9.25 0 0.836 10 0 0.836
-5 -8.47033e-22 0.835986 -4.24997 0 0.835935 -3.49995 0 0.835616 -2.74991
0 0.83419 -0.970118 0 0.703382 -0.87455 0 0.699864 -0.874264 -2.71051e-20
0.649852 -0.874033 -2.71051e-20 0.599873 -0.49698 0 0.599585 -0.497345 -9.21572e-19 0.612046
-0.450014 0 0.611892 -0.44938 2.71051e-20 0.599454 -2.00002 0 0.84097 -1.84639
-3.38813e-21 1.02215 -1.25185 0 1.01276 -0.896512 -3.38813e-21 0.900668 -0.908183 6.77626e-21
0.801076 -0.904022 -1.86347e-20 1.00093 0.624925 0 0.799916 0.249931 0 0.799891
0.249978 0 0.899916 0.249997 0 0.999939 0.999987 0 0.999957 1.75061
-2.1684e-19 1.02409 2.50003 0 1.0296 3.25 -1.69407e-21 1.02993 4 0
1.02999 4.75 0 1.03 5.5 0 1.03 6.25 2.11758e-22 1.03
7 0 1.03 7.75 0 1.03 8.5 5.29396e-23 1.03 9.25
0 1.03 10 0 1.03 -5 0 1.02999 -4.24998 0
1.02994 -3.49996 -8.47033e-22 1.02968 -2.74996 0 1.02849 -2.00026 0 1.02458
-0.87482 0 0.799893 -0.87491 0 0.899919 -0.49993 0 0.799862 -0.499958
7.6233e-19 0.849889 -0.312476 0 0.849885 -0.312472 0 0.799853 -1.25001 8.04681e-21
1.19601 -0.499979 5.29396e-23 1.10737 -0.731886 2.11758e-22 1.19997 -0.499981 0 1.19997
-0.124987 0 0.999933 -0.477759 -5.29396e-23 0.999933 -0.487556 -1.45584e-22 1.09995 0.250008
0 1.19997 1 0 1.19997 1.7507 0 1.22203 2.50003 -1.35525e-20
1.22368 3.25 0 1.22394 4 0 1.22399 4.75 4.23516e-22 1.224
5.5 0 1.224 6.25 2.11758e-22 1.224 7 0 1.224 7.75
1.05879e-22 1.224 8.5 0 1.224 9.25 0 1.224 10 2.64698e-23
1.224 -5 4.23516e-22 1.22399 -4.24999 -4.23516e-22 1.22395 -3.49998 0 1.22374
-2.75001 0 1.22279 -2.00077 0 1.21965 -1.24997 4.23516e-22 1.19997 -0.499969
-5.29396e-23 0.999933 -0.874942 0 0.999936 -0.499979 -1.32349e-23 1.09995 -2.75001 0
1.36967 -3.18711 4.23516e-22 1.41751 -2.75001 4.23516e-22 1.4171 -2.00072 3.38813e-21 1.29692
-2.00065 0 1.41474 -1.25823 6.35275e-21 1.40014 -0.980416 0 1.39998 -0.499986
0 1.39998 0.250009 0 1.39998 1 0 1.39998 1.75054 0
1.41682 2.50002 -1.35525e-20 1.41776 3.25 0 1.41796 4 4.23516e-22 1.41799
4.75 0 1.418 5.5 0 1.418 6.25 0 1.418 7
0 1.418 7.75 0 1.418 8.5 0 1.418 9.25 0
1.418 10 0 1.418 -5 0 1.41799 -4.24999 0 1.41797
-3.49999 -4.23516e-22 1.41781 -1.24998 0 1.39998 -2.80392 1.32349e-23 1.61143 -2.75
-1.32349e-23 1.6114 -2.0003 0 1.60983 -1.25396 2.64698e-23 1.60004 -1.12789 2.64698e-23
1.59999 -0.49999 1.05879e-22 1.59999 0.250008 0 1.59999 1.00001 4.23516e-22 1.59999
1.75038 0 1.61122 2.50002 0 1.61184 3.25 -4.23516e-22 1.61197 4
-4.23516e-22 1.61199 4.75 0 1.612 5.5 0 1.612 6.25 0
1.612 7 0 1.612 7.75 5.29396e-23 1.612 8.5 2.64698e-23 1.612
9.25 -1.32349e-23 1.612 10 -1.32349e-23 1.612 -5 0 1.61199 -4.24999
0 1.61198 -3.49999 0 1.61187 -1.24999 0 1.59999 -2.75 -1.32349e-23
1.63714 -2.64195 -2.11758e-22 1.80559 -2.00012 -8.47033e-22 1.80492 -1.25741 0 1.80004
-1.19082 -7.94093e-23 1.8 -0.499992 1.05879e-22 1.79999 0.250006 2.11758e-22 1.79999 1
0 1.8 1.75023 0 1.80561 2.50001 3.38813e-21 1.80592 3.25 0
1.80599 4 0 1.806 4.75 2.11758e-22 1.806 5.5 0 1.806
6.25 0 1.806 7 0 1.806 7.75 0 1.806 8.5
2.64698e-23 1.806 9.25 0 1.806 10 0 1.806 -5 0
1.806 -4.25 -2.11758e-22 1.80599 -3.49999 0 1.80594 -2.75 -1.05879e-22 1.8057
-1.24999 0 1.8 -2 -4.76456e-22 1.98532 -1.20969 -1.65436e-23 2 -0.499993
0 2 0.250006 0 2 1 0 2 1.75 0
2 2.5 0 2 3.25 0 2 4 0 2
4.75 -1.05879e-22 2 5.5 0 2 6.25 0 2 7
5.29396e-23 2 7.75 0 2 8.5 0 2 9.25 0
2 10 -1.32349e-23 2 -5 2.21817e-18 2 -4.25 1.05879e-22 2
-3.49999 0 2 -2.74999 0 2 -1.99999 -5.29396e-23 2 -1.24999
3.30872e-24 2 0.0956945 -5.42101e-20 0.203879 0.0632748 0 0.203876 0.0625511 0
0.250042 -0.403589 6.77626e-21 0.40138 -0.405779 7.7927e-19 0.38799 -0.406379 -6.77626e-21 0.375196
-0.499567 -1.35525e-20 0.375265 0.250006 -6.50521e-19 0.375144 0.156247 0 0.375155 0.156237
9.41901e-19 0.400212 0.203129 0 0.400201 0.249796 0 0.59991 0.249852 -1.0842e-19
0.587433 0.202953 0 0.587417 0.202888 6.50521e-19 0.599901 0.625121 -6.77626e-21 0.499953
0.717439 6.77626e-21 0.504955 0.625095 6.77626e-21 0.475379 0.343596 1.0842e-19 0.599918 0.343639
0 0.574939 0.296781 0 0.574964 0.249926 0 0.574977 0.62499 -4.2826e-18
0.549927 0.624917 4.55365e-18 0.599925 0.203133 0 0.412725 -0.449046 0 0.587135
-0.496581 5.42101e-20 0.587161 0.625036 -9.32414e-18 0.40006 0.625067 1.13164e-18 0.450032 0.249704
0 0.624881 0.155871 0 0.599866 0.155839 1.95156e-18 0.624853 0.249886 1.35525e-20
0.749873 0.062411 0 0.749846 0.0624478 -4.26227e-18 0.799869 -0.312472 0 0.749804
-0.499901 -3.38813e-21 0.749824 -0.691227 0 0.30453 -0.499912 3.02221e-18 0.300065 -0.875784
-3.11708e-18 0.361353 -0.592465 -2.71051e-20 0.40036 -0.499854 0 0.350135 -0.687111 1.35525e-20
0.350117 -0.68656 -2.71051e-20 0.40021 0.437526 -1.35525e-20 0.400108 0.437522 6.77626e-21 0.350086
0.250015 -2.51399e-18 0.35011 0.625027 3.38813e-21 0.350064 -0.592287 0 0.425286 -0.498048
0 0.425444 -0.873902 5.42101e-18 0.54992 -0.496663 0 0.574746 -0.591532 0
0.574798 -0.591729 0 0.599734 -0.149108 0 0.406489 -0.149477 -5.29396e-23 0.403592
-0.149678 0 0.406489 -0.451876 -2.1684e-18 0.499977 -0.451579 0 0.487563 -0.498366
0 0.487552 -0.498515 -1.0842e-19 0.499993 0.437553 0 0.450075 0.437532 -6.07153e-18
0.425113 0.254621 -1.25361e-19 0.496697 0.26485 -5.42101e-20 0.498023 0.264831 0 0.496529
0.254636 -2.30393e-19 0.49668 0.570241 0 0.499932 0.437665 -2.71051e-20 0.474991 0.437859
-2.71051e-20 0.49988 0.437372 -1.0842e-19 0.599915 0.249722 3.25261e-19 0.649874 0.43732 -5.42101e-20
0.649899 0.624872 0 0.649914 0.624883 -3.95734e-18 0.699913 0.43734 6.83047e-18 0.699894
0.249817 0 0.699869 -0.592227 0 0.624743 -0.498071 -2.71051e-20 0.624658 -0.499769
6.77626e-21 0.69979 -0.687025 0 0.699824 -0.150854 -1.03677e-18 0.599678 -0.151059 -6.77626e-21
0.605522 -0.127339 6.77626e-21 0.605681 -0.127867 0 0.599582 -0.406139 -4.40457e-20 0.699754
-0.406113 0 0.674749 -0.499634 0 0.674774 -0.18433 -4.23516e-22 0.674527 -0.163626
-4.23516e-22 0.678958 -0.165125 0 0.674537 -0.171868 4.23516e-22 0.674524 -0.14924 3.34737e-19
0.400169 -0.125737 0 0.400165 -0.12551 0 0.393854 -0.149076 -2.11758e-22 0.393877
-0.499925 -2.61564e-18 0.325088 -0.406241 0 0.325087 -0.4062 0 0.300069 -0.124901
0 0.300062 -0.218633 -3.27294e-18 0.299673 -0.218596 1.35525e-20 0.324664 -0.124851 0
0.325085 -0.126061 7.86047e-19 0.406473 -0.0785222 1.30782e-18 0.400166 -0.126118 3.38813e-21 0.41275
-0.0785648 0 0.412729 0.240678 1.0842e-18 0.500153 0.252614 -2.1684e-19 0.498317 0.252386
1.0842e-19 0.496231 0.241035 0 0.496114 0.228892 -1.35525e-20 0.496204 0.228835 6.77626e-21
0.498715 0.229819 2.71051e-20 0.500074 0.25248 0 0.499935 0.240657 -1.6263e-19 0.500957
0.264863 0 0.500154 0.264689 0 0.500951 0.437443 0 0.549896 0.437406
[...]
POINT_DATA 2021
FIELD attributes 2
p 1 2021 float
2.01253 1.44062 2.37222 4.36646 0.0584059 0.0562915 -4.2056 -6.04425 -7.6931 -6.168 -4.32315
0.496188 0.464037 0.111764 0.326592 0.174895 0.00345008 0.0272367 0.00549479 0.0143967 0.00951439
0.0154839 0.00469046 0.00980336 4.94868e-05 0.00439169 -0.00148805 0.00221766 -0.00111563 0.00207453 -0.000483645
0.00211481 0.00055292 0.00332919 0 0 0.615218 0.610763 0.610611 0.614933 0.636106
0.63521 0.706087 0.702953 0.928204 0.92491 1.64266 1.76421 1.77961 2.2382 2.47893
-4.05592 1.37054 -4.10872 0.650531 -0.111635 -6.03403 0.57202 0.442203 0.189617 0.0291535
0.00718924 0.00928801 0.00543394 0.000894695 -0.000722753 -0.000334935 -0.000431212 0.00265041 0 0.610178
0.614163 0.632795 0.693915 0.903784 1.95809 2.0309 3.13058 3.87511 7.32861 -3.295
-1.04813 4.58651 -5.73388 -5.72604 -2.267 0.33773 0.82615 1.03024 0.925558 0.52116
0.516962 0.847017 0.880402 0.427329 0.167104 0.022872 0.00214606 0.00632584 0.00418683 0.000288945
-0.0010628 -0.000481141 -0.00029799 0.00284121 0 0.609488 0.612973 0.629158 0.681222 0.863317
1.85182 2.13778 5.13675 5.59104 4.82839 32.5818 36.4668 52.0376 45.9936 4.75814
4.907 3.39258 3.42486 2.68649 4.0875 0.840114 0.809244 0.788767 0.80653 1.398
1.78713 1.84703 0.992292 0.48239 0.349686 0.127629 0.013539 0.000431323 0.00688498 0.00608508
0.002525 0.00112242 0.00146655 0.00206633 0.00350246 0 0.608611 0.611491 0.624723 0.666337
3.25372 3.75227 4.68457 4.76263 34.3627 32.701 44.6255 50.7666 0.802696 0.782398
0.940953 1.70375 2.62858 1.1432 0.0801552 -4.88112 -5.30187 -2.74888 -0.228582 0.19107
0.073322 -0.00547612 -0.0108797 -0.000947473 0.000869173 -0.00120756 -0.00173887 -0.000825975 0.00030903 0.00128802
0 0.607641 0.609868 0.619893 0.65035 0.74134 2.74816 1.73351 5.18986 3.2938
0.558116 -0.675285 0.698905 0.311876 0.313699 0.143616 -1.70948 0.674219 0.282353 -0.974303
-0.39398 0.0979589 0.0648293 -0.00289325 -0.0108829 -0.00104952 0.00144598 -0.000378493 -0.000899506 -1.99483e-05
0.0010574 0.00156902 0 0.606676 0.608257 0.615044 0.634218 0.677836 0.693667 0.824299
1.1601 0.325363 0.622986 0.614266 0.619359 0.657573 0.626668 0.567626 0.38484 0.0602393
-0.564362 -0.37778 0.0462095 0.0593321 -0.00432553 -0.015123 -0.00438732 -0.000771049 -0.00210182 -0.00237569
-0.00132937 -0.00013514 0.000447794 0 0.605812 0.606801 0.61062 0.566971 0.607582 0.607621
0.591577 0.496457 0.42789 0.0778919 -0.435283 -0.348893 -0.000980661 0.0480894 -0.00788466 -0.0187702
-0.00646442 -0.00175607 -0.00268933 -0.00278248 -0.00163921 -0.000381776 0.000269117 0 0.605134 0.605628
0.607076 0.495951 0.606642 0.596055 0.571251 0.458794 0.428443 0.0872219 -0.364997 -0.332952
-0.0274981 0.0430001 -0.00828599 -0.0198508 -0.00721233 -0.0021675 -0.00300587 -0.00303636 -0.00184718 -0.000564395
0.000131586 0 0.604696 0.604846 0.604733 0.60023 0.45767 0.564979 0.426291 0.0903153
-0.342617 -0.327798 -0.0357914 0.0414691 -0.0083822 -0.0202679 -0.00757017 -0.00239589 -0.00316511 -0.00313386
-0.00190223 -0.000600056 0.000117007 7.8863e-05 0.604542 0.604564 0.60389 0.59771 0.564469 0.44537
-10.2874 -11.145 -11.7956 70.4978 60.0859 43.8978 29.6808 2.92865 1.69692 4.40447
5.06219 4.15146 4.56544 6.20042 5.41821 2.02076 1.73113 2.13608 2.96519 3.67301
3.36966 3.97881 2.24121 1.90897 6.04458 56.2555 39.4502 1.93087 2.2547 3.65493
4.76051 2.17914 -4.52892 -11.2062 -9.84533 -3.19137 8.46565 7.0076 11.9091 4.75194
17.4689 20.8267 9.14059 10.5209 2.57634 1.49685 0.994476 1.65322 19.7358 36.9234
5.61488 39.6503 20.3338 18.8239 -58.829 -58.609 -58.8266 68.4717 68.3848 47.5704
44.8043 3.3972 3.10184 -5.02169 0.336539 0.185941 -5.07132 2.58199 3.96677 3.93206
2.85722 1.84025 1.75735 1.62282 0.947624 0.759107 -1.35909 17.0094 28.1097 13.298
7.2793 -56.5461 -56.3351 -58.7734 -58.698 13.8779 19.1146 18.487 -46.303 -42.7434
-44.4224 -45.1593 -58.352 -57.5881 -57.5907 -57.7628 16.6182 15.8963 12.0128 -29.3695
-27.9724 -45.3706 -37.0675 -58.9292 -46.0016 -58.7493 -48.1339 11.0021 4.29148 10.5102
11.8565 9.10312 9.37834 9.66618 4.51362 11.1248 0.894513 0.724885 3.7158 3.47121
4.05646 4.31405 47.7629 68.3536 -58.8297 -56.474 6.5011 11.1311 -51.421 -52.7222
-58.4271 4.46282 6.29243 6.45087 6.48114 -31.4345 -40.0403 -49.4641 -29.8054 64.4191
60.804 41.6659 41.4146 -44.0534 -56.0978 -11.5297 -8.59168 -0.448646 -24.5297 -42.4477
42.9904 44.3167 64.3144 66.4861 -51.7625 -49.9235 -50.7032 0.330986 -9.6677 -12.7101
-11.6906 -21.6727 -24.8638 -57.8296 44.0491 21.8582 22.1518 11.7063 12.0232 12.1964
13.1477 22.0286 44.5126 10.8007 12.4641 11.9045 13.2448 -58.7319 -58.7189 -58.1732
-58.1605 -57.5481 -56.9311 -56.5726 45.8288 66.8413 -58.3933 -58.621 -59.0271 -58.302
-29.8304 -35.0545 -32.7763 -13.7552 -1.60703 -4.92158 -50.6089 -50.2681 -58.0542 -13.1627
0.109631 0.0359037 -13.3883 -58.329 -56.8191 -51.2972 -12.5119 -10.2473 -3.74069 1.52989
-7.35598 -5.57936 -18.6194 -38.3555 -41.455 -36.3507 -52.2033 -53.219 -52.9617 -4.098
-17.5163 -18.2638 -4.71305 -56.0526 -51.954 -56.0749 -3.5403 -9.26116 -16.5666 -11.6741
67.5391 46.8764 -54.2309 -54.3948 -56.7944 -56.6755 -56.1952 -53.7145 -57.0852 -53.1524
-55.9583 -59.0102 -59.1465 -59.1879 -32.1487 -77.1047 -96.1462 -101.104 -103.362 -102.924
-48.6456 -50.192 -54.2377 -48.2553 -49.8307 -98.0598 -99.4212 -71.2778 -34.2772 -58.5001
-59.3233 -59.0236 -56.3022 -57.194 -57.3153 -57.2372 -57.6254 7.10945 6.02331 8.92039
-56.0367 -55.742 -55.9596 -55.4372 -55.5559 -55.8517 -56.2664 -55.1368 -55.1209 2.03599
1.82837 0.709375 1.21235 4.22471 4.59328 1.35511 -55.8574 -56.3135 -56.9669 5.79647
6.63111 2.78671 0.88693 3.14216 -32.0922 -38.0966 -37.3555 -31.7061 -54.561 -55.0494
-57.9507 -57.6368 -54.971 -55.8014 -38.9828 -43.3383 -43.1275 -36.9825 -46.0954 -50.1368
-53.2728 -53.4234 -52.2604 123.584 131.443 146.787 146.875 -58.1673 -56.2648 -56.5365
-57.8647 -57.7435 4.40966 2.13017 3.01949 4.61135 -9.7572 -3.93172 -5.89384 -8.93753
-11.8245 -39.1375 -36.9137 -25.6195 -27.3691 -32.1862 -39.1591 -24.9078 -24.9246 31.1003
41.2781 52.1213 37.9312 23.0758 19.2466 34.2381 26.1363 0.670543 0.828794 1.98834
34.0896 24.9154 17.1214 22.2204 2.88511 3.82613 4.47312 4.58298 3.72048 6.6768
6.7865 4.62198 -9.36033 -8.24639 -1.37808 -10.239 14.6902 9.14982 10.8254 -54.6503
-56.8742 -57.0047 -54.8444 -82.7021 -81.4207 -84.6617 -47.9374 -12.694 -18.3404 -27.6072
-56.0593 -52.8554 -55.4175 -56.5228 -74.1045 -73.858 -58.4848 -59.7174 -49.5618 -47.9656
-50.2165 -50.3931 3.74924 3.80884 -0.612241 5.99305 5.64809 4.66094 5.33257 5.72812
6.1364 -54.106 -53.6664 -68.8094 -68.0199 79.0221 94.1209 85.7202 112.123 106.434
88.8546 90.1685 161.86 164.193 153.373 121.643 98.4215 104.36 97.3183 117.657
-12.9013 -26.9553 -31.2796 -5.8678 -26.1345 -52.098 -41.7137 -6.34085 93.721 101.22
86.8051 78.273 96.702 88.3974 107.606 148.463 158.216 167.406 165.144 106.629
102.905 159.632 -32.6235 -7.97942 -38.3137 -28.5123 -47.6906 140.214 140.084 115.609
110.589 110.252 115.515 139.609 138.993 108.142 167.239 170.845 172.014 172.305
173.714 186.651 186.84 174.821 173.273 -33.0187 -40.1294 -32.9725 -56.4402 -50.8279
-42.678 -41.925 -40.6604 -25.6034 2.74208 -2.63398 -0.691335 173.393 175.337 187.192
172.364 186.508 187.151 175.224 172.169 179.597 181.761 170.111 168.879 179.895
167.879 171.096 182.419 -52.6119 -37.8365 -36.5822 -55.7186 -55.7503 -55.8713 -36.3826
-46.2269 -36.4896 -36.9709 -45.8451 -45.8109 -3.37722 -9.2447 -25.1223 -25.1693 -32.9499
-43.5684 -32.9674 -32.6553 -42.9835 -21.2401 -18.9614 -20.6828 115.425 140.144 138.127
139.038 114.682 109.31 170.036 169.91 170.478 167.742 136.4 108.399 113.577
137.151 -57.1546 -54.2321 -52.8659 -52.6913 -55.6978 -46.1643 90.1787 93.457 78.7206
-14.9543 -6.234 -6.77041 -20.8823 54.5159 56.3768 69.9829 73.6407 -55.9572 -55.1946
-55.4896 -55.9476 -57.1141 -57.3519 -57.4895 -57.6035 -56.2463 -56.3542 -55.9655 -56.0574
-134.953 -109.371 -77.8254 -95.6963 -98.0576 -99.1855 -99.1775 -83.2906 -79.0175 -92.5992
-70.2378 -85.0193 -132.639 -136.351 -128.361 -96.2363 -97.0498 -54.9012 -54.3668 -55.0723
-56.1507 -56.434 -53.9928 -53.9231 6.75749 7.27938 13.7219 16.3357 13.8153 -50.9401
-50.2168 -45.7625 -45.9904 -46.1905 -45.9904 -45.9638 -45.7462 12.943 12.6722 16.8758
8.27653 8.08147 9.64328 10.1256 10.1511 8.51538 7.33322 8.09317 12.406 15.7171
13.7308 0.793015 -0.846222 -3.03938 7.04611 6.21512 5.09349 6.43682 7.15468 -52.483
-53.3807 -56.3408 -55.6443 -48.6554 -49.6473 13.6106 15.5687 16.961 -46.8464 -49.7332
-49.8681 -46.5658 -45.728 11.3595 11.1019 11.1446 9.56382 6.86171 -6.99 -5.75481
5.48012 6.30359 6.26524 -48.5321 -48.8876 146.51 148.535 140.954 136.992 113.397
118.346 125.752 121.231 184.614 185.889 182.191 178.433 -55.8005 -55.7314 -53.1192
-53.0295 169.64 183.36 185.059 172.997 174.454 186.574 171.031 182.145 169.627
179.279 -16.9129 -19.2191 -23.9716 -28.2784 -26.8623 -22.9956 -8.79562 -3.46543 -3.89447
-9.08771 -14.1171 -13.7644 -1.03244 -9.06639 -9.93606 -15.0197 -18.1533 -8.21304 -8.97024
-24.9623 -20.2303 -9.66119 -0.78213 -3.05368 6.05161 -3.49487 6.03422 6.79581 3.37154
3.90127 4.62233 4.1841 7.70921 6.0815 3.94316 5.7991 -18.9184 -16.0019 -26.3402
-21.4729 -56.5076 -58.2382 -58.8366 -58.6988 3.02674 3.09461 5.02929 5.51132 4.27471
4.87208 -14.5458 -40.2915 -57.2385 -65.4583 -53.2397 -31.8758 -59.0129 10.7236 10.1814
10.2046 -2.42604 0.216593 11.9905 17.2555 9.51424 23.666 20.5656 10.4292 1.68149
6.82288 8.31823 13.1268 11.5606 6.78857 -53.4558 -44.0518 -49.9324 -13.0905 -43.938
-24.99 -60.6638 -83.7822 108.756 92.8188 106.254 108.436 112.798 111.94 172.888
172.012 173.263 172.579 171.281 185.968 185.969 185.204 -58.0553 -58.2703 174.486
-56.2648 -56.2631 -57.1951 -57.3617 -57.0637 -55.9909 -149.435 -136.332 -136.235 -132.955
-157.084 -136.157 -132.486 -132.795 -119.629 -114.986 -80.2536 -73.183 -73.5387 -70.9107
-119.422 -121.161 -56.8447 -55.8328 -54.7351 -57.2127 9.46447 7.11667 10.6751 8.2195
10.9924 12.0183 12.3901 13.3518 14.1413 -55.2604 -54.3286 -56.3339 -55.1447 -53.189
-52.9237 -53.0401 -54.9724 -5.95575 -0.459404 -1.4045 -4.58313 9.19039 9.56194 6.81263
5.8537 7.56359 9.54664 8.78984 6.71096 1.32513 8.17526 7.07366 6.90961 8.66819
10.3972 9.21339 12.0369 11.325 -54.7159 -55.1435 -55.2199 -55.346 -55.4977 -55.3502
-54.8495 -52.8461 -54.1626 -54.1712 -54.1877 -51.1411 -52.5362 -73.8609 -73.0773 -57.6936
-59.9942 -77.6682 -68.5079 -77.5901 -124.064 -128.66 -136.286 -79.6107 -97.6591 -107.498
-80.4727 -99.0046 128.784 113.624 148.547 151.77 -54.7135 -53.9468 -55.0521 -55.0349
-53.2366 143.894 167.878 146.153 -49.0395 -48.1981 -48.6405 -49.4195 -49.2292 -49.247
-49.1736 -47.6722 -8.10072 -9.39595 -11.9495 -11.0544 -14.8929 -17.0924 -19.2475 -17.0193
-17.9562 74.8136 85.5095 -58.5549 51.2227 76.5313 65.0028 75.6459 61.1104 14.0406
11.173 45.6584 36.6391 8.35094 9.18701 3.63899 5.30464 5.11278 7.80089 6.7186
7.08681 7.47052 8.27757 -52.8275 -52.3845 -52.1017 -52.6881 -1.02169 -0.517689 -1.09341
2.26717 5.70045 5.14286 7.09264 6.52578 -51.0188 -51.4347 -51.1614 138.22 136.304
171.195 184.786 189.091 189.378 186.869 185.344 -55.8459 -55.5527 -55.8749 -55.705
-53.2555 -45.6667 -46.4867 -47.0974 -46.3074 -46.6332 -47.9231 -56.1564 -56.1818 -56.7715
-57.3734 -57.0864 -57.0706 -57.2322 -56.8501 -55.2317 -115.861 -111.495 -134.619 -111.143
-134.114 -122.339 -123.765 -133.488 -56.2606 -57.5241 -55.9338 -54.7187 13.6666 12.3018
11.275 12.4451 12.6945 13.3394 -36.8164 -36.3133 -31.5386 -30.983 -41.7923 -42.3358
-46.5029 -46.1063 -51.133 -51.182 -45.5959 -52.2018 -51.8425 -6.15267 -0.92036 -11.4133
0.653692 2.09 8.01168 7.54784 7.87465 4.28584 10.6835 7.35247 8.76338 10.247
10.891 10.7853 10.9265 12.6878 12.3608 2.36234 12.4267 14.8106 15.982 3.8808
3.38843 3.12582 3.80767 -58.9964 -58.1344 -53.0113 -56.5647 -44.7751 -44.2283 -40.1964
-44.5551 -45.9805 -50.0289 -51.2478 -49.6616 -49.8947 -49.6431 -47.145 -52.2333 -47.2717
4.19761 -48.3524 -49.6529 141.031 131.845 129.437 129.492 129.872 114.396 106.982
188.667 188.14 187.146 -50.7911 -51.1209 -1.40371 -0.836509 0.200868 -29.6956 -30.5963
186.059 186.895 180.372 183.331 181.877 181.506 -33.2885 -29.1263 -3.16826 -7.82957
-5.94476 -3.21498 -24.828 -13.6984 -10.2761 -13.4724 -19.9079 -4.58184 80.8822 56.5248
60.8525 21.0728 21.4386 68.0212 110.712 10.1363 7.18801 -2.22781 -2.4837 6.82485
7.61926 7.91002 6.10267 6.55462 24.5366 16.2983 -0.420471 19.7587 -1.76844 3.48333
8.16175 8.08592 68.0248 110.213 -54.759 -55.8441 18.1174 91.6569 109.074 100.386
92.4303 108.05 109.164 126.579 134.317 143.193 -55.9124 81.7153 73.7167 50.5687
12.5492 18.6041 16.7758 -75.5083 -56.9278 -56.9212 -56.9244 -55.3301 -55.2625 -59.9834
-55.4926 -59.9308 -60.5267 23.3513 -6.47225 5.96184 10.5591 10.7958 -1.40008 -1.50587
-2.61871 -55.6261 -54.171 -1.00345 2.54768 2.85397 -57.5479 -56.9873 -56.1322 7.96042
7.65166 4.13113 -56.6415 41.6508 49.834 -66.226 -58.5834 17.724 15.2731 8.99173
6.9096 5.07402 8.51652 6.96187 -54.1837 -54.1436 -52.9754 -52.9042 -55.8155 -52.2462
-51.7744 -54.5516 -54.8531 -54.8473 -54.3414 -55.4083 -54.9818 -54.854 -54.5991 4.48739
-51.765 -57.8495 -56.8156 100.542 129.181 144.738 155.202 168.111 162.947 160.758
148.759 188.25 -52.9144 -53.8576 -51.9063 -7.44007 -10.4785 -3.29724 -49.7358 -49.7616
-49.7322 -50.0055 -53.1741 -47.294 -48.8064 -47.5723 -47.0984 -47.7994 28.8423 20.2729
-112.312 -119.917 -119.774 -120.41 -120.754 -74.0535 -96.6349 -74.0572 13.3722 16.992
-10.9003 12.0737 11.5147 -5.5125 -7.09456 4.106 2.48747 0.976067 0.627603 -0.649178
-2.2717 -1.01177 4.14167 4.51518 0.586821 2.83275 4.48954 2.39984 1.31096 13.3027
17.5908 -50.1093 5.51672 12.7603 8.51365 16.4778 8.46271 11.1721 14.189 15.9609
4.79083 5.00063 6.47367 5.90143 -2.06979 -3.98669 -6.23462 -6.13623 4.87408 1.67053
4.38382 9.44548 15.3441 16.5493 8.23782 5.66305 3.0421 2.73482 7.18915 10.6659
11.3216 11.9631 11.0962 5.70223 -3.55057 5.57696 -2.79359 3.20837 -3.55943 2.45041
11.0065 8.3407 12.3792 6.9758 9.47868 11.3926 10.7857 10.4862 7.9327 8.63827
9.15883 9.40574 7.89234 7.36511 7.37937 6.01347 -5.46731 -8.97495 -7.19433 6.48154
5.89155 7.96692 6.24703 -9.19232 -10.9498 1.08407 7.05854 5.88235 -1.67273 5.6736
-136.571 -137.391 -137.692 10.2507 -55.6001 -54.5448 -54.5986 5.24664 9.91908 5.32349
8.3973 10.9942 -55.7576 -55.7184 -55.0883 -54.7777 -61.0332 -60.5344 -61.021 -69.0715
-116.08 -119.907 -113.762 -120.622 -48.991 -49.5197 -47.4827 -47.1834 -47.4428 -47.1608
-14.7102 -14.7096 -17.1352 -52.6363 -52.452 -52.2117 5.1363 1.51217 4.98325 4.95315
-52.0125 -52.4449 -52.567 141.79 151.137 -55.3534 -50.7801 13.3436 13.9007 11.5968
7.20639 11.475 18.7292 4.2235 3.34176 4.68342 3.67914 -53.3058 -57.324 -57.1385
-55.3835 7.76682 15.0891 11.1247 4.10565 4.25955 10.0913 8.8451 9.53082 8.6428
10.4152 12.4345 10.2812 5.83766 8.57291 8.22636 -54.1539 -50.1829 -48.5542 91.2258
80.2567 84.2218 66.7482 72.7324 -4.75012 -2.88267 0.347515 -1.42691 7.64217 8.15581
7.69289 8.28304 8.04321 7.53755 7.08374 116.833 106.797 94.7561 -73.9818 -57.4106
-56.1149 -54.9487 -54.7777 -54.4224 -54.3987 163.487 139.77 161.896 162.005 7.63024
4.50071 10.6171 11.318 7.21363 8.54633 7.44307 6.9131 6.16851 2.78431 -2.34266
4.76827 5.40521 5.98541 4.38442 6.68463 14.4484 9.05754 -12.766 15.6351 14.2925
7.64938 10.7557 15.9654 9.14666 -12.6651 -13.5854 -11.6585 -2.82286 -4.8535 -13.1087
7.24786 5.29762 -14.6911 -16.2974 7.18592 4.87442 -1.0025 -3.89104 -55.0476 -45.9809
13.074 1.96351 0.294254 -0.0962536 5.99447 5.55624 6.48359 6.07382 6.03047 5.61658
0.331064 6.29263 6.93173 -0.409675 5.73975 4.76184 7.20923 6.70025 6.12574 106.2
86.6672 122.018 123.803 5.20756 4.93539 3.48207 -55.2624 5.13713 6.12639 5.90359
-9.4902 -12.4409 -0.174299 6.28803 6.78083 5.4275 8.10338 5.23436 6.9269 3.92174
37.3465 -53.2356 -55.2775 -54.7699 -54.739 -54.7983 -2.90533 -4.28351 -12.5439 -12.413
-12.4352 -3.43273 9.40371 3.13606 5.99319 7.09468 2.61925 2.40284 0.129077 -0.838487
-10.866 -5.18992 -4.08665 -11.2347 -4.14085 -12.0912 5.60599 -11.3458 -12.3709 -2.42434
1.24379 6.38327 6.3946 5.82614 8.89662 0.277329 6.6931 -3.03359 -1.04365 4.39853
-0.739798 7.26157 4.88165 -9.79458 9.03112 -0.589865 6.18063 1.10309 1.48721 4.85462
5.20778 4.29867 5.0179 3.13964 7.68719 8.92142 5.48927 6.10561 0.997283 3.48231
11.1176 5.57437 0.869548 -0.484561 3.65773 173.166 176.988 176.117 181.03 169.13
168.099 172.679 179.958 180.949 69.7062 73.8981 55.0936 -56.2271 -41.5125 -38.627
-36.9041 -31.0182 -43.8641 -51.9633 -51.614 -55.3258 -46.8255 100.796 154.472 162.112
155.253 146.987 -56.6967 -56.2943 -56.628 -56.4012 -55.9033 -56.3618 -54.9822 -55.2865
-55.1273 3.96447 -0.33074 171.246 -18.4485 186.024 190.27 189.418 -51.3207 -47.2996
182.755 185.885 186.061 -16.3708 -51.1518 85.2653 -55.1034 -55.2323 -55.4858 -55.4526
-49.5379 189.393 -2.42304 189.508 185.529 189.102 7.3722 -64.3139 110.674 109.986
-55.9683 4.65154 -51.8309 -53.1478 -51.945 -137.908 138.731 -54.9558 159.228 -52.0678
-120.834 -120.752 72.2646 6.98534 2.64383 168.085 164.698 -15.4199 139.857 191.113
190.009 185.409 189.463 190.796 189.792 172.804 191.168 186.789 189.963 191.202
0.615235 0.610769 0.636096 0.705217 0.919164 1.62324 2.20929 -3.98435 1.35758 0.0236326
-4.10065 -5.87005 0.408941 0.0903327 -0.00157081 0.00528465 0.0102348 0.00554155 0.000887398 -0.000700734
-0.000387196 0.00018598 0.00111621 0.000606389 -54.1617 -52.4437 -134.103 -134.659 -48.0122 -48.474
-49.1464 -47.8513 -48.3562 -49.0721 -49.7322 -47.3531 -95.2007 -74.8413 -48.8599 -47.2108
-74.2799 -48.7829 -51.2677 -51.6228 -50.7378 -99.6575 -111.305 -129.602 -119.905 -119.724

U 3 2021 float
20.0061 -0.0460853 -0.215941 20.0438 -0.0309763 -0.0740453 19.929 -0.00657083 -0.0965478 19.9355 -0.0561952
-0.607099 20.0176 -0.0596022 0.0399768 20.0179 -0.0594972 0.0400089 20.1682 -0.0786063 0.0575218
20.2329 -0.0868364 0.0655534 20.2785 -0.0918345 0.149238 20.291 -0.116727 0.26385 20.21
-0.117959 0.208721 19.9544 -0.0474438 0.0198834 19.9967 -0.0549004 0.0183624 20.0037 -0.0531689
0.00698982 19.8528 -0.024637 0.0177323 19.8516 -0.021415 0.0141855 20.0059 -0.052867 0.00190545
19.8539 -0.0200021 0.00970211 20.0044 -0.0520398 0.000524189 19.853 -0.0183459 0.00880591 20.0026
-0.0512113 -9.4591e-06 19.8516 -0.0167923 0.00850429 20.0011 -0.0504453 -0.000291943 19.8505 -0.0154574
0.00826771 19.9995 -0.0497565 -0.00047458 19.8494 -0.0142965 0.00804912 19.9979 -0.0490959 -0.000601549
19.8483 -0.0132378 0.00785805 19.9962 -0.0484468 -0.000700507 19.8472 -0.0122747 0.00765658 19.9946
-0.0478121 -0.000736679 19.8461 -0.011392 0.00756477 19.9926 -0.0471568 -0.000827218 19.8451 -0.0104637
0.00728561 19.8446 -0.00998104 0.00698472 19.9923 -0.0469465 -0.000867475 19.9996 -0.000343441 3.1311e-05
20 0 0 20 0 0 19.9996 -0.000343479 7.87614e-05 19.9983
-0.000793485 9.39349e-05 19.9984 -0.000803009 0.000278926 19.9942 -0.00156102 0.000368243 19.9941 -0.00152564
0.00100052 19.9788 -0.00282099 0.000335731 19.9795 -0.00314403 0.00357899 19.9464 -0.00553045 -0.00906847
19.9362 -0.00628607 -0.00797535 19.9389 0.00220917 -0.0143393 19.9276 -0.00552375 -0.0295294 19.906
0.00516463 -0.0610483 20.2333 -0.0731011 0.0018178 20.0484 -0.029127 -0.0566661 20.2354 -0.0721895
0.00508601 19.9272 -0.0894581 0.0307472 20.0249 -0.119006 0.0822062 20.2327 -0.0868046 0.0650349
19.8547 -0.0298488 0.02347 19.3066 0.12037 0.0100953 19.3387 0.117774 0.0111988 19.3668
0.112033 0.011257 19.3879 0.107732 0.011948 19.4062 0.103938 0.0124567 19.4232 0.100336
0.012635 19.4392 0.096931 0.0126417 19.4542 0.0937263 0.0125702 19.4685 0.0906714 0.0124305
19.4816 0.0877801 0.0123168 19.4963 0.0849547 0.0120359 19.5051 0.0835021 0.0117773 20
0 0 19.9996 -0.000344019 0.000137456 19.9985 -0.000801307 0.00049069 19.9945 -0.00153155
0.00172016 19.9801 -0.00326582 0.00603563 19.9197 -0.00882232 0.010746 19.9194 -0.00800293 0.00100575
19.8498 -0.0166926 -0.0958085 19.7932 -0.0206203 -0.0681577 19.9554 -0.0515262 -1.02573 20.4348
-0.068551 -0.935607 20.2161 -0.0540763 -0.509391 19.9303 -0.0562248 -0.63661 20.3097 -0.164609
0.453247 20.31 -0.165496 0.456706 20.1006 -0.251271 0.582422 19.9908 -0.240427 0.301883