# vtk DataFile Version 2.0
tracks
ASCII
DATASET POLYDATA
POINTS 2595 float
-1.001 -0.05 0.0011 -0.900789 -0.0500204 0.00109733 -0.800577 -0.0500408 0.00109466 -0.700366 -0.0500611
0.001092 -0.600155 -0.0500814 0.00108934 -0.499943 -0.0501016 0.00108669 -0.424945 -0.0501047 0.00107928
-0.349947 -0.0501422 0.00106955 -0.274949 -0.0501794 0.00105991 -0.19995 -0.0502162 0.00105035 -0.124952
-0.0502527 0.00104088 -0.0499538 -0.0502604 0.00104129 0.0250446 -0.0502635 0.00104979 0.100043 -0.0502666
0.00105835 0.175041 -0.0502698 0.00106698 0.25004 -0.050273 0.00107568 0.400037 -0.0502627 0.00109103
0.550035 -0.0502533 0.001105 0.700032 -0.0502437 0.00111914 0.85003 -0.050234 0.00113347 1.00003
-0.0502242 0.00114799 1.15003 -0.0502318 0.00115528 1.30002 -0.050231 0.00115947 1.45002 -0.0502303
0.00116367 1.60002 -0.0502295 0.0011679 1.75002 -0.0502287 0.00117213 1.90002 -0.0502345 0.00117496
2.05002 -0.050235 0.00117658 2.20001 -0.0502356 0.0011782 2.35001 -0.0502361 0.00117982 2.50001
-0.0502366 0.00118144 2.65001 -0.0502419 0.00118248 2.80001 -0.050244 0.00118286 2.95001 -0.0502461
0.00118324 3.10001 -0.0502482 0.00118362 3.25001 -0.0502502 0.001184 3.40001 -0.0502555 0.00118428
3.55001 -0.0502583 0.00118456 3.70001 -0.0502612 0.00118484 3.85001 -0.0502641 0.00118513 4.00001
-0.050267 0.00118541 4.15 -0.0502722 0.0011855 4.3 -0.0502759 0.00118588 4.45 -0.0502797
0.00118626 4.6 -0.0502835 0.00118664 4.75 -0.0502873 0.00118702 4.9 -0.0502924 0.00118705
5.05 -0.0502967 0.00118755 5.2 -0.0503011 0.00118805 5.35 -0.0503055 0.00118856 5.5
-0.0503098 0.00118906 5.65 -0.0503149 0.00118905 5.8 -0.0503196 0.00118967 5.95 -0.0503244
0.00119029 6.1 -0.0503291 0.00119092 6.25 -0.0503339 0.00119154 6.4 -0.0503388 0.0011915
6.55 -0.0503438 0.00119221 6.7 -0.0503488 0.00119293 6.85 -0.0503538 0.00119364 7
-0.0503588 0.00119435 7.15 -0.0503637 0.0011943 7.3 -0.0503689 0.0011951 7.45 -0.0503741
0.00119589 7.6 -0.0503792 0.00119669 7.75 -0.0503844 0.00119748 7.9 -0.0503893 0.00119742
8.05 -0.0503946 0.00119829 8.2 -0.0503999 0.00119916 8.35 -0.0504052 0.00120003 8.5
-0.0504106 0.0012009 8.65 -0.0504154 0.00120083 8.8 -0.0504208 0.00120178 8.95 -0.0504263
0.00120273 9.1 -0.0504317 0.00120368 9.25 -0.0504371 0.00120462 9.4 -0.0504419 0.00120455
9.55 -0.0504773 0.00120609 9.7 -0.0505457 0.0012082 9.85 -0.0506473 0.00121089 10
-0.0507819 0.00121416 -1.001 -0.05 0.0537316 -0.900807 -0.050094 0.0535753 -0.800614 -0.0501863
0.0533918 -0.700421 -0.0502983 0.0531769 -0.600229 -0.050437 0.0529292 -0.500035 -0.0506024 0.0526488
-0.425004 -0.05082 0.0524352 -0.349973 -0.0511216 0.0521578 -0.274943 -0.0514645 0.0519029 -0.199912
-0.051835 0.0516898 -0.124879 -0.0521861 0.0515573 -0.0498862 -0.052399 0.0516028 0.0251067 -0.0525566
0.0517643 0.100099 -0.0527042 0.0519907 0.175092 -0.0528573 0.0522639 0.250087 -0.0530058 0.0525723
0.400077 -0.0532602 0.0531967 0.550067 -0.0535084 0.0537081 0.700057 -0.0537202 0.0541716 0.850047
-0.0538956 0.0545867 1.00003 -0.0540395 0.0549532 1.14754 -0.0542934 0.0552337 1.29505 -0.0545151
0.0554936 1.44256 -0.0547339 0.055719 1.59007 -0.0549498 0.0559097 1.70682 -0.0551187 0.0560331
1.71546 -0.0551319 0.056041 1.7241 -0.0551453 0.0560487 1.73274 -0.0551587 0.0560564 1.74138
-0.0551723 0.056064 1.75002 -0.0551859 0.0560716 1.90002 -0.0554253 0.0562014 2.05002 -0.0556584
0.0563142 2.20001 -0.0558866 0.0564095 2.35001 -0.0561101 0.0564874 2.50001 -0.0563288 0.056548
2.65001 -0.0565591 0.056598 2.80001 -0.0567813 0.0566406 2.95001 -0.0570024 0.0566756 3.10001
-0.0572226 0.0567029 3.25001 -0.0574417 0.0567226 3.40001 -0.0576704 0.0567379 3.55001 -0.0578921
0.056752 3.70001 -0.0581129 0.0567641 3.85001 -0.0583329 0.0567745 4.00001 -0.058552 0.0567829
4.15 -0.058778 0.0567899 4.3 -0.0589998 0.0567972 4.45 -0.0592209 0.0568039 4.6
-0.0594412 0.05681 4.75 -0.0596609 0.0568155 4.9 -0.0598846 0.0568196 5.05 -0.0601058
0.0568248 5.2 -0.0603262 0.0568296 5.35 -0.0605459 0.056834 5.5 -0.0607648 0.0568381
5.65 -0.0609856 0.0568406 5.8 -0.0612051 0.0568445 5.95 -0.0614239 0.0568481 6.1
-0.0616419 0.0568515 6.25 -0.0618592 0.0568546 6.4 -0.062077 0.0568557 6.55 -0.0622943
0.0568587 6.7 -0.0625108 0.0568614 6.85 -0.0627265 0.056864 7 -0.0629416 0.0568664
7.15 -0.0631563 0.0568666 7.3 -0.063371 0.056869 7.45 -0.0635851 0.0568712 7.6
-0.0637984 0.0568734 7.75 -0.064011 0.0568754 7.9 -0.0642227 0.0568751 8.05 -0.0644349
0.0568772 8.2 -0.0646464 0.0568793 8.35 -0.0648573 0.0568814 8.5 -0.0650675 0.0568835
8.65 -0.0652762 0.0568832 8.8 -0.0654858 0.0568855 8.95 -0.0656946 0.0568877 9.1
-0.0659027 0.0568899 9.25 -0.06611 0.0568921 9.4 -0.0663153 0.0568916 9.55 -0.0665222
0.056894 9.7 -0.0667287 0.0568964 9.85 -0.0669347 0.0568987 10 -0.0671403 0.0569011
-1.001 -0.05 0.106363 -0.900818 -0.0500662 0.106137 -0.800636 -0.0501283 0.105864 -0.700455
-0.0502132 0.105547 -0.600274 -0.0503621 0.105013 -0.50009 -0.0505748 0.104263 -0.424996 -0.0508286
0.103691 -0.349901 -0.0511388 0.103104 -0.274807 -0.0514496 0.102595 -0.199711 -0.0517035 0.102191
-0.124607 -0.0519914 0.10211 -0.0496039 -0.0521823 0.102242 0.0253987 -0.0523109 0.102479 0.100401
-0.0524248 0.102794 0.175403 -0.0525555 0.103188 0.250413 -0.0527027 0.10366 0.400348 -0.0529702
0.104646 0.550284 -0.0532309 0.105513 0.70022 -0.0534561 0.106291 0.850157 -0.0536518 0.106902
1.00009 -0.0538179 0.107345 1.15007 -0.0541216 0.107601 1.30006 -0.05429 0.107885 1.45005
-0.0544203 0.108153 1.60003 -0.0545435 0.108386 1.75002 -0.0546595 0.108586 1.90002 -0.0548663
0.108729 2.05002 -0.0549915 0.108874 2.20001 -0.0551115 0.109004 2.35001 -0.0552287 0.109116
2.50001 -0.0553432 0.109212 2.65001 -0.0555338 0.109279 2.80001 -0.0556619 0.109341 2.95001
-0.0557888 0.109395 3.10001 -0.055915 0.109442 3.25001 -0.0560404 0.109481 3.40001 -0.0562292
0.109514 3.55001 -0.0563614 0.109543 3.70001 -0.0564924 0.10957 3.85001 -0.0566225 0.109596
4 -0.0567516 0.10962 4.15 -0.0569375 0.109644 4.3 -0.057073 0.109664 4.45
-0.0572075 0.109683 4.6 -0.0573412 0.109701 4.75 -0.057474 0.109719 4.9 -0.0576572
0.10974 5.05 -0.0577943 0.109755 5.2 -0.0579304 0.109769 5.35 -0.0580656 0.109782
5.5 -0.0582 0.109795 5.65 -0.0583798 0.109815 5.8 -0.058517 0.109825 5.95
-0.0586533 0.109835 6.1 -0.0587887 0.109844 6.25 -0.0589234 0.109854 6.4 -0.0590997
0.109871 6.55 -0.0592364 0.109878 6.7 -0.0593722 0.109884 6.85 -0.0595071 0.10989
7 -0.0596413 0.109896 7.15 -0.0598142 0.109913 7.3 -0.0599499 0.109916 7.45
-0.0600849 0.10992 7.6 -0.060219 0.109923 7.75 -0.0603524 0.109927 7.9 -0.0605219
0.109942 8.05 -0.0606566 0.109944 8.2 -0.0607905 0.109946 8.35 -0.0609236 0.109948
8.5 -0.0610561 0.109949 8.65 -0.0612224 0.109965 8.8 -0.0613558 0.109966 8.95
-0.0614883 0.109966 9.1 -0.06162 0.109967 9.25 -0.0617509 0.109968 9.4 -0.0619137
0.109982 9.55 -0.0620462 0.109982 9.7 -0.0621781 0.109982 9.85 -0.0623096 0.109981
10 -0.0624406 0.109981 -1.001 -0.05 0.158995 -0.900796 -0.050077 0.158768 -0.800593
-0.0501661 0.158421 -0.700392 -0.0503072 0.157687 -0.600195 -0.0505127 0.156484 -0.499991 -0.0507733
0.154659 -0.42472 -0.0513403 0.153071 -0.349437 -0.0517617 0.152174 -0.274149 -0.0521081 0.151649
-0.19886 -0.0524456 0.1514 -0.123701 -0.0527021 0.151504 -0.0487783 -0.0527655 0.15172 0.0261428
-0.0527707 0.15222 0.101062 -0.052826 0.152908 0.175981 -0.052905 0.153682 0.250955 -0.0529725
0.154481 0.400793 -0.0530239 0.155851 0.550631 -0.0533472 0.156996 0.700473 -0.0536451 0.157742
0.850315 -0.0538851 0.158324 1.00014 -0.0540953 0.158738 1.15012 -0.0544431 0.158965 1.30009
-0.0546554 0.159221 1.45007 -0.0548007 0.159474 1.60005 -0.0548903 0.15972 1.75002 -0.0549728
0.159932 1.90002 -0.0551467 0.160087 2.05002 -0.0552387 0.160245 2.20002 -0.0553207 0.160389
2.35001 -0.0553951 0.160517 2.50001 -0.0554669 0.160628 2.65001 -0.0556152 0.160711 2.80001
-0.0557008 0.160788 2.95001 -0.0557844 0.160858 3.10001 -0.0558665 0.160921 3.25001 -0.0559479
0.160977 3.40001 -0.0560928 0.161026 3.55001 -0.0561811 0.161072 3.70001 -0.0562676 0.161116
3.85001 -0.0563527 0.161158 4 -0.0564369 0.161199 4.15 -0.0565776 0.16124 4.3
-0.0566682 0.161276 4.45 -0.0567573 0.161312 4.6 -0.0568453 0.161347 4.75 -0.0569325
0.161381 4.9 -0.0570697 0.16142 5.05 -0.0571611 0.161451 5.2 -0.0572512 0.161482
5.35 -0.0573401 0.161512 5.5 -0.0574282 0.161542 5.65 -0.0575613 0.161578 5.8
-0.0576523 0.161605 5.95 -0.057742 0.161631 6.1 -0.0578306 0.161657 6.25 -0.0579185
0.161682 6.4 -0.0580475 0.161716 6.55 -0.0581374 0.161739 6.7 -0.0582262 0.161761
6.85 -0.0583139 0.161783 7 -0.058401 0.161805 7.15 -0.0585259 0.161837 7.3
-0.0586145 0.161857 7.45 -0.058702 0.161876 7.6 -0.0587887 0.161896 7.75 -0.0588746
0.161915 7.9 -0.0589958 0.161946 8.05 -0.059083 0.161963 8.2 -0.0591693 0.161981
8.35 -0.0592547 0.161998 8.5 -0.0593395 0.162015 8.65 -0.0594572 0.162046 8.8
-0.0595429 0.162062 8.95 -0.0596276 0.162078 9.1 -0.0597114 0.162094 9.25 -0.0597944
0.16211 9.4 -0.0599084 0.162139 9.55 -0.059993 0.162154 9.7 -0.060077 0.162169
9.85 -0.0601605 0.162183 10 -0.0602435 0.162198 -1.001 -0.05 0.211626 -0.947597
-0.0500729 0.211467 -0.894195 -0.0501494 0.211274 -0.840792 -0.0502294 0.211047 -0.78739 -0.0503513
0.210755 -0.724157 -0.050576 0.210274 -0.679311 -0.0508358 0.209624 -0.63447 -0.05115 0.20875
-0.589631 -0.0514666 0.20774 -0.544796 -0.0517868 0.206594 -0.499928 -0.0521119 0.20531 -0.469145
-0.0523895 0.204253 -0.438364 -0.0526754 0.203136 -0.407578 -0.0529436 0.202151 -0.376788 -0.0531951
0.201291 -0.326422 -0.0535887 0.200029 -0.2861 -0.0538846 0.199177 -0.245773 -0.0541777 0.198554
-0.205443 -0.054471 0.198232 -0.165111 -0.0547246 0.198185 -0.124892 -0.0549029 0.198389 -0.0496187
-0.0551077 0.199161 0.0256527 -0.0551451 0.200138 0.10092 -0.055153 0.201403 0.176186 -0.0551892
0.202719 0.237095 -0.0552144 0.203611 0.239972 -0.055215 0.203648 0.242848 -0.0552156 0.203684
0.245725 -0.0552162 0.203721 0.248602 -0.0552167 0.203757 0.251478 -0.0552172 0.203793 0.326237
-0.0552295 0.204716 0.400998 -0.0552441 0.205521 0.475759 -0.0552608 0.206208 0.550522 -0.0553037
[...]
POINT_DATA 2595
FIELD attributes 4
age 1 2595 float
0 0.00501114 0.0100223 0.0150334 0.0200446 0.0250557 0.0288052 0.0325529 0.0363006 0.0400483 0.0437961
0.0475445 0.0512902 0.0550359 0.0587815 0.0625271 0.0700239 0.0775229 0.085022 0.092521 0.10002
0.10752 0.11502 0.12252 0.13002 0.13752 0.14502 0.152519 0.160019 0.167519 0.175019
0.182519 0.190018 0.197518 0.205018 0.212517 0.220017 0.227517 0.235016 0.242516 0.250016
0.257516 0.265015 0.272515 0.280015 0.287515 0.295015 0.302514 0.310014 0.317514 0.325013
0.332513 0.340013 0.347513 0.355013 0.362512 0.370012 0.377512 0.385012 0.392511 0.400011
0.407511 0.415011 0.422511 0.43001 0.43751 0.44501 0.45251 0.46001 0.467509 0.475009
0.482509 0.490009 0.497509 0.505008 0.512508 0.520008 0.527507 0.535005 0.542503 0.549999
0 0.00502488 0.0100508 0.0150708 0.0200827 0.0250865 0.0288248 0.0325573 0.0362834 0.0400027
0.043716 0.0474222 0.0511219 0.0548199 0.058518 0.0622178 0.0696296 0.0770662 0.0845175 0.0919835
0.0994642 0.106834 0.114205 0.121577 0.128951 0.134788 0.13522 0.135652 0.136084 0.136516
0.136948 0.144448 0.151948 0.159448 0.166946 0.174444 0.181942 0.189439 0.196936 0.204432
0.211929 0.219426 0.226922 0.234419 0.241915 0.249412 0.256909 0.264406 0.271903 0.2794
0.286897 0.294395 0.301892 0.30939 0.316887 0.324385 0.331883 0.339381 0.346879 0.354376
0.361874 0.369373 0.376871 0.384369 0.391868 0.399366 0.406865 0.414363 0.421862 0.429361
0.43686 0.444359 0.451858 0.459357 0.466856 0.474356 0.481856 0.489355 0.496855 0.504354
0.511854 0.519355 0.526854 0.534354 0.541854 0.549354 0 0.00502686 0.0100553 0.015078
0.020094 0.0251036 0.0288497 0.0325889 0.0363189 0.0400441 0.04376 0.0474646 0.0511639 0.0548622
0.0585597 0.062257 0.0696565 0.0770824 0.0845262 0.0919916 0.0994782 0.10698 0.114485 0.121992
0.1295 0.137009 0.144523 0.152031 0.159539 0.167046 0.174553 0.182063 0.189568 0.197073
0.204578 0.212082 0.219592 0.227096 0.2346 0.242105 0.249609 0.257119 0.264624 0.272129
0.279634 0.287139 0.29465 0.302155 0.30966 0.317165 0.324671 0.332182 0.339687 0.347193
0.354698 0.362204 0.369715 0.377221 0.384727 0.392233 0.399739 0.407251 0.414757 0.422264
0.42977 0.437277 0.444789 0.452296 0.459802 0.467309 0.474816 0.482329 0.489836 0.497343
0.504851 0.512358 0.519871 0.527379 0.534886 0.542394 0.549901 0 0.00502902 0.0100638
0.0150956 0.0201213 0.0251418 0.0289063 0.0326594 0.0364007 0.0401317 0.043846 0.0475406 0.0512304
0.0549201 0.0586093 0.0623018 0.0696908 0.0771154 0.0845685 0.0920376 0.0995273 0.107037 0.114549
0.122066 0.129587 0.137108 0.144635 0.152156 0.159677 0.167197 0.174717 0.182241 0.18976
0.197278 0.204796 0.212314 0.219837 0.227355 0.234872 0.24239 0.249908 0.257432 0.26495
0.272468 0.279986 0.287505 0.295029 0.302547 0.310066 0.317585 0.325103 0.332628 0.340147
0.347666 0.355185 0.362704 0.370228 0.377748 0.385267 0.392787 0.400306 0.407831 0.415351
0.422871 0.43039 0.43791 0.445436 0.452956 0.460476 0.467997 0.475517 0.483043 0.490563
0.498084 0.505605 0.513125 0.520652 0.528173 0.535694 0.543215 0.550736 0 0.00268393
0.00536949 0.00805668 0.0107432 0.0139222 0.0161753 0.0184279 0.0206797 0.0229306 0.0251823 0.0267248
0.0282652 0.0298026 0.0313371 0.0338414 0.0358383 0.03783 0.0398166 0.041798 0.0437686 0.047448
0.0511294 0.0548128 0.0585032 0.0614984 0.0616401 0.0617818 0.0619235 0.0620653 0.0622071 0.0658917
0.0695859 0.0732895 0.077003 0.080726 0.0813177 0.0819095 0.0825013 0.0830932 0.0836684 0.0868257
0.0899853 0.0931474 0.0963119 0.0994785 0.106996 0.114516 0.12204 0.129569 0.137102 0.144641
0.152174 0.159707 0.16724 0.174773 0.18231 0.189842 0.197373 0.204904 0.212434 0.21997
0.227501 0.235032 0.242562 0.250093 0.257629 0.26516 0.272691 0.280223 0.287754 0.295291
0.302822 0.310354 0.317885 0.325417 0.332954 0.340486 0.348018 0.35555 0.363082 0.370619
0.378151 0.385683 0.393216 0.400748 0.408286 0.415819 0.423351 0.430884 0.438417 0.445955
0.453488 0.461021 0.468554 0.476088 0.483626 0.49116 0.498693 0.506227 0.51376 0.521299
0.528833 0.536367 0.543901 0.551435 0 0.00126425 0.00252887 0.00379415 0.00506022 0.0063271
0.0101138 0.0139087 0.0177149 0.0215272 0.0253218 0.0269091 0.0284862 0.0300564 0.0316193 0.0330752
0.0333839 0.0336924 0.0340006 0.0343086 0.0346165 0.0364435 0.0382635 0.0400747 0.0418808 0.0436778
0.0454774 0.0472828 0.0491004 0.0509235 0.0526246 0.0526499 0.0526753 0.0527006 0.0527259 0.0527512
0.0545828 0.0564179 0.0582565 0.0600986 0.0619439 0.0656438 0.0693589 0.0730906 0.0768318 0.0805811
0.0843427 0.0881043 0.091867 0.0956322 0.0993996 0.106934 0.114471 0.122012 0.129556 0.137104
0.144665 0.152214 0.159764 0.167313 0.174861 0.182416 0.189963 0.197511 0.205057 0.212604
0.220157 0.227703 0.23525 0.242796 0.250343 0.257895 0.265442 0.272989 0.280536 0.288083
0.295636 0.303183 0.31073 0.318278 0.325825 0.333378 0.340926 0.348473 0.356021 0.363569
0.371122 0.37867 0.386218 0.393766 0.401314 0.408868 0.416416 0.423964 0.431512 0.439061
0.446615 0.454164 0.461712 0.469261 0.47681 0.484364 0.491913 0.499462 0.507011 0.51456
0.522115 0.529664 0.537213 0.544762 0.552311 0 0.00126527 0.00253105 0.00379733 0.00506412
0.00633143 0.00822542 0.0101218 0.0120206 0.0139221 0.0158257 0.0177426 0.0196644 0.021587 0.0235127
0.0254506 0.0264212 0.0273889 0.0283523 0.0293112 0.0302697 0.0307403 0.0312093 0.0316762 0.0321411
0.0326565 0.0331147 0.0335708 0.0340249 0.034477 0.0349264 0.0358357 0.0367417 0.0376437 0.0385416
0.0394306 0.0403192 0.0412064 0.0420931 0.0429796 0.0438672 0.0449921 0.0461215 0.0472558 0.048395
0.0486698 0.049508 0.050348 0.0511899 0.0520338 0.0528788 0.0547088 0.0565522 0.058407 0.0602686
0.0621309 0.0640032 0.065876 0.0677505 0.0696274 0.0715082 0.0733967 0.0752794 0.0771585 0.0790395
0.0809256 0.0839506 0.0869798 0.0900093 0.0930391 0.0956078 0.0964672 0.0973268 0.0981865 0.0990464
0.0999063 0.107488 0.115074 0.122664 0.130262 0.137865 0.145489 0.153093 0.160693 0.168292
0.175891 0.183504 0.1911 0.198695 0.206289 0.213884 0.221492 0.229086 0.236679 0.244271
0.251865 0.259472 0.267065 0.274657 0.282249 0.289842 0.297448 0.30504 0.312632 0.320224
0.327817 0.335421 0.343013 0.350605 0.358196 0.365788 0.373391 0.380983 0.388574 0.396165
0.403757 0.411359 0.41895 0.426541 0.434132 0.441723 0.449324 0.456915 0.464505 0.472096
0.479687 0.487287 0.494877 0.502467 0.510057 0.517648 0.525247 0.532837 0.540427 0.548016
0.555607 0 0.00126264 0.00252595 0.00379029 0.0050558 0.00632248 0.00823223 0.010144 0.0120595
0.0139783 0.0159023 0.0178191 0.0197488 0.0216912 0.0236461 0.0256232 0.0266225 0.0276226 0.0286228
0.0296221 0.0306331 0.0308675 0.0311019 0.031336 0.0315683 0.0317511 0.0325124 0.0332608 0.033996
0.0347171 0.0354295 0.0358757 0.0363201 0.0367629 0.0372043 0.0376398 0.0380764 0.0385101 0.0389411
0.0393713 0.0398 0.0402314 0.040663 0.0410947 0.0415271 0.0419628 0.0423983 0.0428334 0.0432693
0.0437061 0.0441452 0.0450233 0.0459121 0.0468119 0.0477222 0.0486487 0.0493106 0.0499721 0.0506355
0.0513014 0.0521281 0.0523719 0.052616 0.0528602 0.0531047 0.0533495 0.0543065 0.0552604 0.0562164
0.0571786 0.0581422 0.0591129 0.060083 0.0610543 0.0620283 0.0630042 0.0649739 0.0669386 0.0688983
0.0708611 0.072807 0.074737 0.0766842 0.078649 0.0806167 0.0825834 0.0865256 0.0904622 0.094373
0.098272 0.10217 0.109947 0.117699 0.125395 0.13305 0.140712 0.1484 0.15607 0.163735
0.171396 0.179055 0.186727 0.194384 0.202039 0.209693 0.217346 0.225011 0.232663 0.240315
0.247965 0.255615 0.263275 0.270925 0.278574 0.286222 0.29387 0.301528 0.309175 0.316822
0.324468 0.332114 0.339769 0.347415 0.35506 0.362704 0.370348 0.377999 0.385643 0.393286
0.400928 0.408571 0.41622 0.423862 0.431503 0.439144 0.446784 0.454431 0.462071 0.469711
0.477349 0.484988 0.492633 0.500271 0.507909 0.515546 0.523183 0.530825 0.538462 0.546098
0.553734 0.56137 0 0.00126432 0.00252928 0.00379488 0.00506112 0.0063286 0.00824545 0.0101647
0.0120873 0.0140161 0.015957 0.0169269 0.0178997 0.0188757 0.0198548 0.0208371 0.0218245 0.0228201
0.0238246 0.0248382 0.0258621 0.0263796 0.026899 0.027422 0.0279487 0.0284815 0.0287413 0.0290021
0.0292648 0.0295297 0.0296318 0.0299549 0.0302797 0.030606 0.0309321 0.0312675 0.0313808 0.0314941
0.0316076 0.0317212 0.0318099 0.0318162 0.0318225 0.0318288 0.0318351 0.0318414 0.0320159 0.0321903
0.0323645 0.0325386 0.0327144 0.0328729 0.033031 0.0331888 0.0333444 0.0334631 0.0335861 0.0337083
0.0338297 0.0339499 0.0340721 0.0342061 0.0343379 0.0344677 0.0345958 0.0346959 0.0347127 0.0347295
0.0347463 0.034763 0.0347796 0.0348932 0.0350062 0.0351186 0.0352302 0.0353415 0.0354426 0.0355427
0.0356418 0.0357403 0.0358929 0.0360205 0.0361476 0.0362746 0.0364011 0.0365095 0.0366332 0.0367572
0.0368812 0.0370049 0.0372904 0.0373564 0.0374224 0.0374884 0.0375543 0.0376197 0.0377688 0.0379173
0.0380658 0.0382147 0.0386939 0.0386965 0.0386991 0.0387017 0.0387043 0.0387069 0.0389246 0.0391425
0.0393607 0.0394415 0.0397979 0.0400175 0.0402371 0.0404568 0.0406768 0.0408973 0.041117 0.0413364
0.0415561 0.0417765 0.0419986 0.0422214 0.0424431 0.0426656 0.0428888 0.043113 0.0435126 0.0439147
0.044323 0.0447379 0.0449035 0.0450071 0.0451108 0.0452147 0.0453187 0.0454233 0.0459053 0.046384
0.0468631 0.0473389 0.0478316 0.0483418 0.0488442 0.049353 0.0498666 0.0503867 0.0504922 0.050598
0.0507043 0.0508117 0.050918 0.0519007 0.0529261 0.0539725 0.0549854 0.0560076 0.0572029 0.0583718
0.0595493 0.0607337 0.0619171 0.0625551 0.0631903 0.0638258 0.0644614 0.0652352 0.0655082 0.0657803
0.0660521 0.0663241 0.0666074 0.0668705 0.0671337 0.0673969 0.06766 0.0679228 0.0691182 0.0703022
0.0714847 0.0726655 0.0738404 0.0749869 0.0761637 0.0773448 0.0785291 0.0797138 0.08201 0.0843073
0.086607 0.0888801 0.0911182 0.0955625 0.0999844 0.104352 0.108656 0.112817 0.120912 0.128952
0.136932 0.144853 0.152712 0.160461 0.168215 0.175965 0.183712 0.191456 0.199194 0.206934
0.214672 0.222407 0.230141 0.23787 0.2456 0.253329 0.261056 0.268782 0.276505 0.284228
0.29195 0.299671 0.30739 0.311418 0.315445 0.319473 0.3235 0.327587 0.331264 0.334941
0.338617 0.342294 0.34597 0.353683 0.361397 0.369111 0.376825 0.384538 0.392245 0.399957
0.40767 0.415382 0.423094 0.430795 0.438506 0.446217 0.453927 0.461638 0.469334 0.477043
0.484752 0.492462 0.50017 0.507862 0.51557 0.523277 0.530984 0.538691 0.546377 0.554083
0.561789 0.569495 0.577201 0 0.00125406 0.00250906 0.00376536 0.00502311 0.00628243 0.00821361
0.0101475 0.0120842 0.0140279 0.0159859 0.0169585 0.017935 0.0189155 0.0199001 0.0208888 0.0218832
0.0228882 0.0239049 0.0249334 0.0259748 0.0265035 0.0270353 0.0275739 0.0281194 0.0286736 0.0292393
0.0298127 0.0303984 0.0309981 0.0316263 0.031946 0.0322657 0.0325864 0.0329082 0.0332194 0.0332246
0.0332298 0.0332349 0.0332401 0.0332453 0.0334156 0.0335859 0.0337561 0.0339216 0.0340102 0.0341707
0.0343284 0.0344832 0.0346348 0.034791 0.034943 0.035092 0.035238 0.0353802 0.0355057 0.0356178
0.0357294 0.0358406 0.0359504 0.036055 0.0361792 0.0363 0.0364175 0.0365344 0.0366912 0.0367904
0.0368894 0.0369883 0.037087 0.0371784 0.0372585 0.0373387 0.0374195 0.0375008 0.0376074 0.0379902
0.0383783 0.0387764 0.0391748 0.0395433 0.0400077 0.0404635 0.0409161 0.0413657 0.0418134 0.0422851
0.0427314 0.0431798 0.0436318 0.0440937 0.044583 0.0450664 0.0455453 0.0460317 0.0465251 0.0472614
0.0480044 0.0487564 0.0495206 0.0495487 0.0500167 0.050485 0.0509536 0.0514205 0.0518887 0.0530321
0.054167 0.0553299 0.056523 0.0577588 0.059052 0.0603191 0.0615604 0.062797 0.06405 0.0653292
0.0665958 0.0678508 0.0690996 0.0703343 0.0709429 0.0715489 0.0721536 0.0727567 0.0734179 0.0736509
0.0738835 0.0741158 0.0743481 0.0745997 0.0749929 0.0753861 0.075779 0.0761719 0.0765639 0.0778031
0.0790468 0.0802981 0.0815571 0.0828208 0.0853235 0.0878324 0.0903284 0.0927791 0.0951991 0.100058
0.104861 0.109506 0.113999 0.118326 0.125342 0.132316 0.139247 0.146062 0.159278 0.160036
0.160794 0.161552 0.162309 0.163073 0.170064 0.177052 0.18404 0.191025 0.198009 0.205745
0.213486 0.221226 0.228964 0.236702 0.244427 0.252163 0.259899 0.267634 0.275369 0.283086
0.29082 0.298553 0.306287 0.314019 0.321731 0.329462 0.337194 0.344925 0.352656 0.360361
0.368091 0.37582 0.383549 0.391278 0.398978 0.406706 0.414433 0.42216 0.429887 0.437582
0.445307 0.453033 0.460758 0.468483 0.476173 0.483896 0.49162 0.499343 0.507066 0.514751
0.522473 0.530194 0.537915 0.545636 0.553317 0.561036 0.568755 0.576474 0.584193 0
0.00125898 0.00251865 0.00377898 0.00504074 0.00630415 0.00823284 0.0101645 0.0120991 0.0140411 0.0159973
0.0169702 0.0179472 0.0189284 0.0199137 0.0209034 0.021898 0.0229032 0.0239202 0.024949 0.0259908
0.0265199 0.027052 0.02759 0.0281348 0.0286888 0.0292522 0.0298234 0.0304045 0.0309983 0.0316228
0.0316251 0.0316275 0.0316298 0.0316321 0.0316344 0.0319494 0.0322651 0.0325811 0.0328972 0.0332255
0.0334753 0.033724 0.0339704 0.0342102 0.0343052 0.0344017 0.0344972 0.0345918 0.0346855 0.0347817
0.0349882 0.0351875 0.03538 0.0355661 0.0357303 0.0358039 0.0358773 0.0359505 0.0360231 0.0360938
0.0361914 0.0362869 0.0363828 0.0364789 0.0366021 0.0366649 0.0367274 0.0367896 0.0368516 0.0369274
0.0369931 0.0370587 0.0371243 0.0371898 0.0372524 0.0377116 0.0381808 0.0386643 0.0391572 0.0395783
0.0400425 0.0404973 0.0409531 0.0414115 0.0418744 0.0423537 0.0428225 0.0432932 0.0437664 0.0442419
0.0447389 0.0452234 0.0457108 0.0462035 0.0467033 0.0477459 0.0488096 0.0498864 0.0509766 0.0520339
0.0520476 0.0520614 0.0520752 0.052089 0.0521028 0.0532367 0.0543937 0.0555753 0.0567822 0.0580073
0.0592518 0.0604938 0.0617416 0.0630063 0.0642643 0.0648961 0.0655196 0.0661422 0.0667692 0.0673997
0.0676087 0.0678172 0.068026 0.0682353 0.0684503 0.0688758 0.0693017 0.0697276 0.0701522 0.0705761
0.0718607 0.0731464 0.074437 0.0757285 0.0770153 0.0775361 0.0780521 0.0785697 0.0790892 0.0796691
0.0804444 0.0812212 0.0819976 0.0827721 0.0835461 0.0861412 0.0887179 0.0912702 0.0937752 0.096233
0.100895 0.105495 0.109962 0.114289 0.118292 0.118513 0.118735 0.118956 0.119177 0.119398
0.127907 0.136272 0.144461 0.152482 0.160482 0.168227 0.175971 0.183711 0.191448 0.199182
0.202409 0.205636 0.208862 0.212088 0.215338 0.219836 0.224333 0.22883 0.233327 0.237823
0.245545 0.253269 0.260994 0.268717 0.276441 0.284155 0.291877 0.2996 0.307322 0.315043
0.322751 0.330472 0.338192 0.345913 0.353632 0.361335 0.369054 0.376773 0.384491 0.392209
0.399906 0.407623 0.41534 0.423057 0.430773 0.438465 0.446181 0.453896 0.461611 0.469325
0.477013 0.484726 0.492439 0.500152 0.507865 0.515548 0.52326 0.530971 0.538683 0.546393
0.554072 0.561781 0.56949 0.5772 0.584909 0 0.00127995 0.00256053 0.00384238 0.00512572
0.00641056 0.00831709 0.0102262 0.012138 0.0140564 0.0159869 0.0169591 0.0179344 0.018913 0.0198952
0.0208809 0.0218753 0.022879 0.0238926 0.0249162 0.025952 0.0264523 0.0269548 0.0274617 0.027973
0.0280747 0.0281813 0.0282881 0.0283949 0.0285017 0.0286087 0.029153 0.0297017 0.030258 0.0308233
0.0314097 0.0314316 0.0314535 0.0314755 0.0314974 0.0315183 0.0315845 0.0316506 0.0317166 0.0317827
0.031841 0.0320467 0.0322522 0.0324577 0.032663 0.0328713 0.0329725 0.0330736 0.0331745 0.0332751
0.0333591 0.0335514 0.033743 0.0339334 0.0341212 0.0343144 0.0343803 0.0344458 0.0345107 0.0345752
0.0346314 0.0346486 0.0346658 0.0346829 0.0347 0.0347166 0.0349181 0.0351156 0.0353093 0.0354952
0.0356718 0.0357064 0.0357408 0.0357751 0.0358093 0.0358448 0.0359326 0.0360196 0.0361059 0.0361933
0.0363181 0.0364152 0.0365116 0.0366074 0.0367024 0.0367946 0.0369233 0.0370508 0.0371776 0.0373046
0.0375091 0.037578 0.0376468 0.037716 0.0377856 0.0378545 0.0380683 0.0382804 0.0384932 0.0387053
0.0389183 0.0391393 0.0393557 0.039568 0.0397808 0.0399962 0.0402139 0.0404297 0.0406442 0.0408591
0.0410776 0.041301 0.0415207 0.041738 0.0419555 0.0421746 0.042395 0.0426136 0.0428307 0.0430482
0.043269 0.043719 0.0441676 0.0446194 0.0450746 0.0455349 0.0460121 0.0464748 0.0469369 0.0474021
0.0478798 0.0483664 0.0488486 0.0493304 0.049818 0.0503133 0.0513383 0.0523703 0.0534146 0.0545071
0.0556295 0.0561685 0.0567066 0.0572476 0.057793 0.0583929 0.0590356 0.0596791 0.0603261 0.0609766
0.0616329 0.062887 0.0641025 0.0653065 0.0665131 0.0677658 0.0690797 0.0703528 0.071582 0.0728041
0.0740177 0.0752475 0.0764661 0.0776867 0.0789094 0.0801339 0.0826111 0.0850893 0.0875655 0.0900083
0.0923657 0.0969267 0.101538 0.106108 0.110425 0.114622 0.122879 0.131096 0.139249 0.147259
0.155105 0.162835 0.170572 0.178306 0.186035 0.193762 0.201477 0.209199 0.216919 0.224637
0.232353 0.24006 0.247773 0.255485 0.263195 0.270904 0.278606 0.286313 0.294018 0.301723
0.309426 0.317124 0.324825 0.332526 0.340225 0.347923 0.355617 0.363313 0.371009 0.378703
0.386396 0.394087 0.401778 0.409469 0.417159 0.424848 0.432535 0.440222 0.447909 0.455594
0.463279 0.468199 0.473119 0.478038 0.482957 0.487928 0.49068 0.493433 0.496186 0.498939
0.501692 0.509372 0.517053 0.524733 0.532414 0.540094 0.547769 0.555449 0.563128 0.570808
0.578487 0 0.00127759 0.00255589 0.00383532 0.00511605 0.00639807 0.00829982 0.0102036 0.0121102
0.0140217 0.0159414 0.0169058 0.0178722 0.0188405 0.0198111 0.020784 0.0217583 0.0227377 0.0237225
0.024712 0.0257054 0.0266972 0.0276958 0.0287037 0.0297076 0.03072 0.0308072 0.0308945 0.0309818
0.0310688 0.0311482 0.032062 0.0329574 0.0338333 0.034689 0.0355455 0.0359973 0.0364471 0.036895
0.0373418 0.0377828 0.0381478 0.038511 0.0388737 0.039236 0.0399772 0.0404134 0.0408498 0.0412863
0.0417229 0.0421592 0.0425973 0.0430345 0.0434727 0.0439119 0.0443524 0.0452343 0.0461237 0.0470226
0.0479294 0.0488541 0.0498089 0.0507509 0.0516801 0.0526146 0.0535626 0.0549465 0.0563512 0.0577613
0.0591844 0.0622896 0.0625188 0.0627479 0.062977 0.063206 0.0634348 0.0654573 0.0674542 0.0694371
0.0714319 0.0734346 0.0754169 0.0774313 0.0794507 0.0814749 0.0835011 0.0875383 0.091607 0.0956572
0.0996274 0.103586 0.109962 0.116359 0.122713 0.129023 0.137945 0.138968 0.13999 0.14101
0.142029 0.143046 0.150753 0.15846 0.166164 0.173867 0.181568 0.189258 0.196956 0.204652
0.212346 0.22004 0.227723 0.235413 0.243103 0.250792 0.258479 0.266158 0.273844 0.281529
0.289213 0.296897 0.304573 0.312254 0.319935 0.327615 0.335295 0.342967 0.350645 0.358322
0.365998 0.373673 0.381343 0.389017 0.39669 0.404362 0.412034 0.419701 0.427371 0.435041
0.44271 0.450379 0.458042 0.465709 0.473376 0.481042 0.488707 0.496368 0.504032 0.511695
0.519358 0.52702 0.534678 0.542338 0.549998 0.557658 0.565318 0 0.0012742 0.00254903
0.00382432 0.00510086 0.00637864 0.00827481 0.0101731 0.0120738 0.0139775 0.0158855 0.0177954 0.0197109
0.0216316 0.0235575 0.0254917 0.0264639 0.0274331 0.0283974 0.0293568 0.0300099 0.0310229 0.0320284
0.0330239 0.0340098 0.0349853 0.0358973 0.0368063 0.0377113 0.0386135 0.0395059 0.0403996 0.0412917
0.0421825 0.0430721 0.0439594 0.0457391 0.0475353 0.0493455 0.0511659 0.053004 0.0546046 0.0562101
0.0578234 0.0594427 0.0622907 0.0624098 0.062529 0.0626482 0.0627674 0.0628915 0.0646525 0.0664159
0.0681817 0.0699499 0.0717201 0.0736183 0.075512 0.0774068 0.0793036 0.0812019 0.0850109 0.088821
0.0926364 0.096457 0.100284 0.107988 0.115693 0.123342 0.130964 0.138597 0.146242 0.153883
0.161524 0.169163 0.1768 0.184441 0.192078 0.199714 0.207349 0.214982 0.222618 0.230251
0.237884 0.245515 0.253145 0.260778 0.268409 0.276038 0.283667 0.291295 0.298926 0.306555
0.314182 0.321809 0.329435 0.337064 0.34469 0.352315 0.35994 0.367563 0.37519 0.382814
0.390437 0.39806 0.405682 0.413307 0.420929 0.42855 0.436171 0.443791 0.451414 0.459034
0.466654 0.474273 0.481891 0.489512 0.49713 0.504748 0.512366 0.519982 0.527601 0.535217
0.542833 0.550449 0.558064 0 0.00127155 0.00254349 0.00381598 0.00508908 0.00636279 0.0101428
0.0139348 0.0177267 0.021516 0.0253103 0.025791 0.0262705 0.0267492 0.027227 0.0276338 0.0290389
0.0304389 0.0318337 0.0332234 0.0346111 0.0364549 0.0382887 0.0401058 0.0419186 0.0437266 0.0455402
0.0473508 0.0491615 0.05098 0.0528093 0.0546454 0.0564827 0.0583228 0.0601658 0.0620116 0.0657145
0.0694308 0.07316 0.0769079 0.0806619 0.0844391 0.0882113 0.0919825 0.0957555 0.099532 0.107072