# vtk DataFile Version 2.0
sampleSurface
ASCII
DATASET POLYDATA
POINTS 2021 float
-0.500032 0 0.11501 -0.499951 3.38813e-21 0.0392727 -0.789037 8.47033e-21 0.120673 -0.500013 -1.35525e-20
0.193965 1.00003 0 0.0485099 1.00003 0 0.0478584 0.475202 0 0.0353615
0.250044 1.41878e-20 0.0305359 0.2506 -5.42101e-20 0.117067 0.251301 0 0.203885 0.364989
0 0.203772 1.75002 0 0.113255 1.75002 0 0.0564279 2.50001 6.89146e-18
0.059229 2.21354 0 0.250758 2.50001 0 0.252875 3.25001 -3.47927e-17 0.0598775
3.25001 -1.69407e-21 0.253888 4.00001 5.60566e-18 0.0599857 4 0 0.253986 4.75
-1.79088e-17 0.0599988 4.75 8.47033e-22 0.253998 5.5 -2.79246e-17 0.0599999 5.5 -4.23516e-22
0.253999 6.25 1.01187e-17 0.06 6.25 0 0.254 7 2.93732e-17 0.06
7 0 0.254 7.75 -2.65294e-17 0.06 7.75 0 0.254 8.5
1.8923e-17 0.06 8.5 0 0.254 9.25 -2.88552e-17 0.06 9.25 -5.29396e-23
0.254 10 -2.64698e-23 0.254 10 0 0.06 -4.24997 0 0.0599042
-5 0 0.0599861 -5 0 0.253986 -4.24997 0 0.253912 -3.49995
0 0.0593815 -3.49994 0 0.253441 -2.74993 0 0.0570188 -2.74991 0
0.251316 -1.99991 0 0.0492276 -1.99987 0 0.242776 -1.24992 -1.69407e-21 0.03
-1.24985 1.23328e-17 0.222327 -1.24989 3.38813e-21 0.125756 -0.874924 2.08116e-17 0.03 -0.874929
0 0.122356 -0.124951 -8.47033e-22 0.03 -0.499941 0 0.03 -0.124922 -8.47033e-22
0.0385291 1.00021 0 0.231242 0.625368 0 0.203537 0.25004 -2.11758e-22 0.03
1.75003 0 0.247334 1.92873 1.69407e-21 0.441438 2.50001 0 0.447397 3.25
-1.69407e-21 0.447898 4 0 0.447986 4.75 0 0.447997 5.5 -4.23516e-22
0.447999 6.25 4.23516e-22 0.447999 7 0 0.448 7.75 -1.05879e-22 0.448
8.5 0 0.448 9.25 0 0.448 10 -2.64698e-23 0.448 -5
-8.47033e-22 0.447985 -4.24997 0 0.447919 -3.49993 0 0.4475 -2.74988 0
0.445609 -1.9998 6.77626e-21 0.437758 -1.24969 1.61411e-17 0.417681 -1.24976 -6.77626e-21 0.31973
-0.875161 7.70461e-18 0.216228 -0.875403 0 0.312476 -0.499924 -8.74138e-19 0.250039 -0.312433
0 0.250037 -0.312436 0 0.200025 -0.499924 0 0.200026 0.250062 3.38813e-21
0.24921 0.250039 -1.69407e-21 0.250046 0.250032 0 0.300069 0.437526 3.05948e-18 0.300066
0.625026 0 0.30005 1.00072 -8.23994e-18 0.326497 1.00196 0 0.423 1.75013
0 0.439575 1.75013 1.77877e-20 0.448245 1.00135 0 0.537141 1.00002 0
0.61834 1.74999 2.71051e-20 0.633055 2.49999 -3.38813e-21 0.641448 3.25 0 0.641907
4 -1.69407e-21 0.641985 4.75 -8.47033e-22 0.641996 5.5 -4.23516e-22 0.641998 6.25
0 0.641999 7 0 0.641999 7.75 0 0.642 8.5 5.29396e-23
0.642 9.25 -5.29396e-23 0.642 10 0 0.642 -5 0 0.641985
-4.24997 -1.69407e-21 0.641926 -3.49993 0 0.641557 -2.74988 0 0.639897 -1.99989
6.77626e-21 0.63382 -1.25099 2.55465e-18 0.614606 -1.25 -2.71051e-20 0.515981 -0.878244 0
0.50789 -0.875961 2.71051e-20 0.459694 -0.875609 0 0.410432 -0.498432 0 0.400603
-0.498071 -1.70762e-18 0.413126 -0.450805 0 0.413349 -0.45095 0 0.400955 0.250009
1.89735e-19 0.412703 0.25 2.71051e-20 0.425212 0.296872 1.00289e-18 0.425187 0.343754 -2.71051e-20
0.425153 0.343763 0 0.400146 0.250006 0 0.400175 1.00162 1.41488e-17 0.520353
-2 4.23516e-22 0.820145 -2.09502 -2.11758e-22 0.830091 -2 0 0.829497 -1.25123
0 0.813251 -1.25126 0 0.713737 -1.25101 6.77626e-21 0.62198 1.00059 0
0.714169 1.00094 0 0.809205 1.75018 0 0.82775 2.5 0 0.835521
3.25 0 0.835917 4 -1.69407e-21 0.835986 4.75 -8.47033e-22 0.835996 5.5
0 0.835998 6.25 0 0.835999 7 0 0.835999 7.75 0
0.836 8.5 0 0.836 9.25 0 0.836 10 0 0.836
-5 -8.47033e-22 0.835986 -4.24997 0 0.835935 -3.49995 0 0.835616 -2.74991
0 0.83419 -0.970118 0 0.703382 -0.87455 0 0.699864 -0.874264 -2.71051e-20
0.649852 -0.874033 -2.71051e-20 0.599873 -0.49698 0 0.599585 -0.497345 -9.21572e-19 0.612046
-0.450014 0 0.611892 -0.44938 2.71051e-20 0.599454 -2.00002 0 0.84097 -1.84639
-3.38813e-21 1.02215 -1.25185 0 1.01276 -0.896512 -3.38813e-21 0.900668 -0.908183 6.77626e-21
0.801076 -0.904022 -1.86347e-20 1.00093 0.624925 0 0.799916 0.249931 0 0.799891
0.249978 0 0.899916 0.249997 0 0.999939 0.999987 0 0.999957 1.75061
-2.1684e-19 1.02409 2.50003 0 1.0296 3.25 -1.69407e-21 1.02993 4 0
1.02999 4.75 0 1.03 5.5 0 1.03 6.25 2.11758e-22 1.03
7 0 1.03 7.75 0 1.03 8.5 5.29396e-23 1.03 9.25
0 1.03 10 0 1.03 -5 0 1.02999 -4.24998 0
1.02994 -3.49996 -8.47033e-22 1.02968 -2.74996 0 1.02849 -2.00026 0 1.02458
-0.87482 0 0.799893 -0.87491 0 0.899919 -0.49993 0 0.799862 -0.499958
7.6233e-19 0.849889 -0.312476 0 0.849885 -0.312472 0 0.799853 -1.25001 8.04681e-21
1.19601 -0.499979 5.29396e-23 1.10737 -0.731886 2.11758e-22 1.19997 -0.499981 0 1.19997
-0.124987 0 0.999933 -0.477759 -5.29396e-23 0.999933 -0.487556 -1.45584e-22 1.09995 0.250008
0 1.19997 1 0 1.19997 1.7507 0 1.22203 2.50003 -1.35525e-20
1.22368 3.25 0 1.22394 4 0 1.22399 4.75 4.23516e-22 1.224
5.5 0 1.224 6.25 2.11758e-22 1.224 7 0 1.224 7.75
1.05879e-22 1.224 8.5 0 1.224 9.25 0 1.224 10 2.64698e-23
1.224 -5 4.23516e-22 1.22399 -4.24999 -4.23516e-22 1.22395 -3.49998 0 1.22374
-2.75001 0 1.22279 -2.00077 0 1.21965 -1.24997 4.23516e-22 1.19997 -0.499969
-5.29396e-23 0.999933 -0.874942 0 0.999936 -0.499979 -1.32349e-23 1.09995 -2.75001 0
1.36967 -3.18711 4.23516e-22 1.41751 -2.75001 4.23516e-22 1.4171 -2.00072 3.38813e-21 1.29692
-2.00065 0 1.41474 -1.25823 6.35275e-21 1.40014 -0.980416 0 1.39998 -0.499986
0 1.39998 0.250009 0 1.39998 1 0 1.39998 1.75054 0
1.41682 2.50002 -1.35525e-20 1.41776 3.25 0 1.41796 4 4.23516e-22 1.41799
4.75 0 1.418 5.5 0 1.418 6.25 0 1.418 7
0 1.418 7.75 0 1.418 8.5 0 1.418 9.25 0
1.418 10 0 1.418 -5 0 1.41799 -4.24999 0 1.41797
-3.49999 -4.23516e-22 1.41781 -1.24998 0 1.39998 -2.80392 1.32349e-23 1.61143 -2.75
-1.32349e-23 1.6114 -2.0003 0 1.60983 -1.25396 2.64698e-23 1.60004 -1.12789 2.64698e-23
1.59999 -0.49999 1.05879e-22 1.59999 0.250008 0 1.59999 1.00001 4.23516e-22 1.59999
1.75038 0 1.61122 2.50002 0 1.61184 3.25 -4.23516e-22 1.61197 4
-4.23516e-22 1.61199 4.75 0 1.612 5.5 0 1.612 6.25 0
1.612 7 0 1.612 7.75 5.29396e-23 1.612 8.5 2.64698e-23 1.612
9.25 -1.32349e-23 1.612 10 -1.32349e-23 1.612 -5 0 1.61199 -4.24999
0 1.61198 -3.49999 0 1.61187 -1.24999 0 1.59999 -2.75 -1.32349e-23
1.63714 -2.64195 -2.11758e-22 1.80559 -2.00012 -8.47033e-22 1.80492 -1.25741 0 1.80004
-1.19082 -7.94093e-23 1.8 -0.499992 1.05879e-22 1.79999 0.250006 2.11758e-22 1.79999 1
0 1.8 1.75023 0 1.80561 2.50001 3.38813e-21 1.80592 3.25 0
1.80599 4 0 1.806 4.75 2.11758e-22 1.806 5.5 0 1.806
6.25 0 1.806 7 0 1.806 7.75 0 1.806 8.5
2.64698e-23 1.806 9.25 0 1.806 10 0 1.806 -5 0
1.806 -4.25 -2.11758e-22 1.80599 -3.49999 0 1.80594 -2.75 -1.05879e-22 1.8057
-1.24999 0 1.8 -2 -4.76456e-22 1.98532 -1.20969 -1.65436e-23 2 -0.499993
0 2 0.250006 0 2 1 0 2 1.75 0
2 2.5 0 2 3.25 0 2 4 0 2
4.75 -1.05879e-22 2 5.5 0 2 6.25 0 2 7
5.29396e-23 2 7.75 0 2 8.5 0 2 9.25 0
2 10 -1.32349e-23 2 -5 2.21817e-18 2 -4.25 1.05879e-22 2
-3.49999 0 2 -2.74999 0 2 -1.99999 -5.29396e-23 2 -1.24999
3.30872e-24 2 0.0956945 -5.42101e-20 0.203879 0.0632748 0 0.203876 0.0625511 0
0.250042 -0.403589 6.77626e-21 0.40138 -0.405779 7.7927e-19 0.38799 -0.406379 -6.77626e-21 0.375196
-0.499567 -1.35525e-20 0.375265 0.250006 -6.50521e-19 0.375144 0.156247 0 0.375155 0.156237
9.41901e-19 0.400212 0.203129 0 0.400201 0.249796 0 0.59991 0.249852 -1.0842e-19
0.587433 0.202953 0 0.587417 0.202888 6.50521e-19 0.599901 0.625121 -6.77626e-21 0.499953
0.717439 6.77626e-21 0.504955 0.625095 6.77626e-21 0.475379 0.343596 1.0842e-19 0.599918 0.343639
0 0.574939 0.296781 0 0.574964 0.249926 0 0.574977 0.62499 -4.2826e-18
0.549927 0.624917 4.55365e-18 0.599925 0.203133 0 0.412725 -0.449046 0 0.587135
-0.496581 5.42101e-20 0.587161 0.625036 -9.32414e-18 0.40006 0.625067 1.13164e-18 0.450032 0.249704
0 0.624881 0.155871 0 0.599866 0.155839 1.95156e-18 0.624853 0.249886 1.35525e-20
0.749873 0.062411 0 0.749846 0.0624478 -4.26227e-18 0.799869 -0.312472 0 0.749804
-0.499901 -3.38813e-21 0.749824 -0.691227 0 0.30453 -0.499912 3.02221e-18 0.300065 -0.875784
-3.11708e-18 0.361353 -0.592465 -2.71051e-20 0.40036 -0.499854 0 0.350135 -0.687111 1.35525e-20
0.350117 -0.68656 -2.71051e-20 0.40021 0.437526 -1.35525e-20 0.400108 0.437522 6.77626e-21 0.350086
0.250015 -2.51399e-18 0.35011 0.625027 3.38813e-21 0.350064 -0.592287 0 0.425286 -0.498048
0 0.425444 -0.873902 5.42101e-18 0.54992 -0.496663 0 0.574746 -0.591532 0
0.574798 -0.591729 0 0.599734 -0.149108 0 0.406489 -0.149477 -5.29396e-23 0.403592
-0.149678 0 0.406489 -0.451876 -2.1684e-18 0.499977 -0.451579 0 0.487563 -0.498366
0 0.487552 -0.498515 -1.0842e-19 0.499993 0.437553 0 0.450075 0.437532 -6.07153e-18
0.425113 0.254621 -1.25361e-19 0.496697 0.26485 -5.42101e-20 0.498023 0.264831 0 0.496529
0.254636 -2.30393e-19 0.49668 0.570241 0 0.499932 0.437665 -2.71051e-20 0.474991 0.437859
-2.71051e-20 0.49988 0.437372 -1.0842e-19 0.599915 0.249722 3.25261e-19 0.649874 0.43732 -5.42101e-20
0.649899 0.624872 0 0.649914 0.624883 -3.95734e-18 0.699913 0.43734 6.83047e-18 0.699894
0.249817 0 0.699869 -0.592227 0 0.624743 -0.498071 -2.71051e-20 0.624658 -0.499769
6.77626e-21 0.69979 -0.687025 0 0.699824 -0.150854 -1.03677e-18 0.599678 -0.151059 -6.77626e-21
0.605522 -0.127339 6.77626e-21 0.605681 -0.127867 0 0.599582 -0.406139 -4.40457e-20 0.699754
-0.406113 0 0.674749 -0.499634 0 0.674774 -0.18433 -4.23516e-22 0.674527 -0.163626
-4.23516e-22 0.678958 -0.165125 0 0.674537 -0.171868 4.23516e-22 0.674524 -0.14924 3.34737e-19
0.400169 -0.125737 0 0.400165 -0.12551 0 0.393854 -0.149076 -2.11758e-22 0.393877
-0.499925 -2.61564e-18 0.325088 -0.406241 0 0.325087 -0.4062 0 0.300069 -0.124901
0 0.300062 -0.218633 -3.27294e-18 0.299673 -0.218596 1.35525e-20 0.324664 -0.124851 0
0.325085 -0.126061 7.86047e-19 0.406473 -0.0785222 1.30782e-18 0.400166 -0.126118 3.38813e-21 0.41275
-0.0785648 0 0.412729 0.240678 1.0842e-18 0.500153 0.252614 -2.1684e-19 0.498317 0.252386
1.0842e-19 0.496231 0.241035 0 0.496114 0.228892 -1.35525e-20 0.496204 0.228835 6.77626e-21
0.498715 0.229819 2.71051e-20 0.500074 0.25248 0 0.499935 0.240657 -1.6263e-19 0.500957
0.264863 0 0.500154 0.264689 0 0.500951 0.437443 0 0.549896 0.437406
[...]
POINT_DATA 2021
FIELD attributes 2
p 1 2021 float
1.87297 1.31208 2.29693 4.21202 0.135932 0.133666 -4.23491 -6.11953 -7.80085 -6.18126 -4.29454
0.519386 0.487966 0.0846431 0.317872 0.147514 -0.0185299 0.00274319 0.00818924 0.0142482 0.0151206
0.0206549 -0.00530704 0.00206648 -0.0201136 -0.0120782 -0.0160945 -0.00868313 -0.00224715 0.00383633 0.00791763
0.0123004 0.00929282 0.0127332 0 0 0.608078 0.603652 0.603495 0.607785 0.628818
0.627921 0.698299 0.695241 0.917775 0.915035 1.61676 1.74023 1.75105 2.18756 2.42274
-4.21919 1.24335 -4.27469 0.770129 0.0128985 -6.10911 0.593494 0.444933 0.160374 0.0015476
0.00255102 0.0124258 -0.00103968 -0.0128335 -0.00940041 0.0023942 0.00958768 0.0108634 0 0.60305
0.607 0.625503 0.686333 0.895269 1.94104 2.00747 3.07502 3.81976 7.13615 -3.63627
-1.30908 4.43151 -5.66584 -5.65652 -2.06819 0.475211 0.973559 1.18637 1.02842 0.533885
0.529812 0.767357 0.772326 0.44285 0.147754 0.00128704 -0.00117681 0.0101922 -0.000332056 -0.0115987
-0.00955528 0.000748872 0.00754786 0.00926499 0 0.602346 0.605796 0.621877 0.673811 0.856466
1.84703 2.12578 5.11798 5.55953 4.78901 32.383 36.2664 51.7558 45.7114 5.2455
5.38181 3.83135 3.80065 2.96279 4.50676 0.766385 0.803536 0.782913 0.800879 1.4037
1.78999 1.84282 0.981434 0.500621 0.372206 0.122126 0.000147999 -0.000295546 0.0122535 0.00387275
-0.00773864 -0.00791329 0.000248338 0.00703144 0.00843672 0 0.601458 0.604303 0.617462 0.659083
3.27514 3.77998 4.69895 4.76421 34.4107 32.7587 44.727 50.8358 0.797067 0.778985
0.944761 1.7317 2.66393 1.15967 0.0666243 -5.10887 -5.41815 -2.78824 -0.23251 0.210592
0.0738782 -0.0171389 -0.0144288 0.00202524 -0.00171826 -0.0115954 -0.0123224 -0.00499467 0.00216645 0.00440267
0 0.600476 0.60267 0.612653 0.643223 0.736058 2.7864 1.76271 5.36991 3.42915
0.766226 -0.345505 0.698264 0.348326 0.326004 0.161759 -1.68421 0.736885 0.319795 -0.983781
-0.4054 0.111086 0.068568 -0.0133332 -0.017119 -2.99754e-05 -0.00071139 -0.0093906 -0.0107742 -0.00445476
0.00240858 0.00474924 0 0.599499 0.601049 0.607818 0.627185 0.672393 0.69293 0.889319
1.17763 0.36328 0.615989 0.607142 0.612373 0.652044 0.62101 0.56545 0.385896 0.0669873
-0.570597 -0.389708 0.0552213 0.0650461 -0.0132005 -0.0228378 -0.00480073 -0.00239033 -0.00944332 -0.010908
-0.00533614 0.00102324 0.00326194 0 0.598622 0.599584 0.603397 0.564833 0.60058 0.600637
0.585742 0.493224 0.425845 0.0818879 -0.440574 -0.359681 0.00536441 0.0536022 -0.0156205 -0.026799
-0.00774817 -0.00305823 -0.00871669 -0.0101281 -0.00529488 0.000368491 0.00230464 0 0.597933 0.598402
0.599848 0.492732 0.599656 0.589209 0.565336 0.454806 0.424969 0.0895161 -0.36979 -0.342787
-0.0227246 0.0481076 -0.0147381 -0.0273139 -0.00888019 -0.00361577 -0.00857014 -0.00984642 -0.00544658 -0.000247223
0.00157356 0 0.597485 0.597613 0.597498 0.593228 0.453702 0.559055 0.422367 0.0920603
-0.347295 -0.337386 -0.0314662 0.0465493 -0.0142997 -0.027538 -0.00952862 -0.00417201 -0.00881844 -0.00990362
-0.00553986 -0.000429606 0.00143309 0.00040991 0.597326 0.597327 0.596652 0.5907 0.558544 0.441124
-10.3702 -11.2424 -11.7782 70.0789 59.6103 43.437 29.44 3.31276 2.2446 5.04664
5.55352 3.02275 2.99981 4.03868 3.85593 2.06998 1.75018 2.20702 2.42469 2.86071
2.19898 2.51813 2.26721 1.89894 6.60001 56.2905 39.4718 2.04273 2.34817 3.28669
2.6595 1.12333 -4.84805 -11.5648 -10.1094 -2.67889 8.71819 6.91947 11.717 4.69755
17.365 20.609 9.05554 10.4429 2.74181 1.65571 1.29525 1.79293 19.6379 36.7428
5.60639 39.6564 20.361 18.8801 -58.5232 -58.3978 -58.5443 68.2984 68.1888 47.4271
44.6898 3.7576 3.39931 -6.96118 -1.14288 -1.24446 -7.01685 2.68802 4.30706 4.1748
2.69384 1.69676 1.75044 1.67954 0.972134 0.776166 -1.56642 17.0938 28.2047 13.4867
7.35389 -49.8929 -49.5894 -52.9559 -53.8996 14.3119 19.5707 18.6558 -43.9571 -40.8066
-42.4028 -42.9582 -58.2246 -56.337 -56.5419 -57.718 16.3953 15.5123 11.7028 -29.6138
-28.6124 -46.1147 -37.1706 -57.6663 -44.0768 -57.2796 -46.1561 11.1812 3.51676 10.5128
12.1331 9.66214 9.8865 10.1415 3.61857 11.3191 -0.597406 -0.928738 3.59203 3.22547
4.24236 4.37908 47.656 68.2052 -53.4124 -49.8975 5.77148 11.3489 -54.4857 -56.0212
-53.7754 3.62035 5.49844 5.91327 6.01952 -30.7348 -39.0999 -46.7179 -28.2419 64.168
60.5412 41.4765 41.2472 -42.2874 -55.1217 -11.2628 -7.88517 -0.000295104 -23.5951 -42.2912
42.9536 44.2937 64.2809 66.4216 -52.2812 -52.1704 -53.3759 -0.246818 -11.8409 -14.2255
-12.4133 -22.5112 -26.4404 -52.6433 43.9034 21.7889 22.102 11.6445 11.9446 12.1604
13.0945 22.0017 44.4352 10.8235 12.4742 11.8975 13.2216 -59.1635 -59.035 -57.2231
-57.1988 -58.3042 -58.4518 -58.4487 45.6579 66.6056 -59.069 -58.076 -58.8228 -59.0435
-28.0151 -33.1074 -30.8708 -12.1241 -0.277521 -3.84295 -49.1203 -48.4608 -57.0811 -11.6005
1.40717 1.41797 -11.6943 -58.0008 -55.5693 -50.2167 -11.0057 -8.81582 -2.31749 2.83917
-11.5814 -10.5756 -25.5347 -45.5224 -48.4918 -42.8843 -54.4425 -54.298 -55.5602 -8.46366
-23.5272 -25.2657 -9.85202 -55.0466 -53.7248 -55.3576 -7.30333 -13.5659 -21.3024 -10.2425
67.4455 46.8104 -50.2568 -49.976 -53.2066 -53.798 -53.2151 -50.3224 -53.6119 -55.8412
-53.783 -58.1476 -58.4899 -58.5063 -29.5472 -73.2561 -91.5974 -96.4566 -99.1676 -98.7924
-45.6541 -50.5368 -54.5471 -48.1649 -51.2739 -100.082 -101.239 -72.5819 -35.4422 -57.1193
-57.875 -58.4409 -56.0952 -56.9318 -58.2982 -58.1919 -57.8909 8.17224 7.17509 10.0867
-55.1269 -55.0784 -55.2025 -54.5669 -54.6925 -54.1059 -54.3498 -53.2631 -53.245 1.87359
1.33962 0.311043 1.04283 1.20213 1.80181 -1.85399 -54.173 -54.9653 -55.1669 6.27247
7.00118 3.38281 1.49103 3.73426 -30.3196 -36.2984 -35.519 -29.8326 -48.7437 -48.8942
-52.6848 -53.3457 -53.0765 -54.0766 -43.8335 -47.9834 -47.2804 -41.5384 -44.2567 -46.7483
-48.9327 -49.4453 -48.6387 123.898 131.819 147.017 147.1 -57.1972 -56.7864 -57.1819
-57.552 -58.6638 5.74956 3.57238 4.45344 5.94403 -14.1962 -7.89077 -11.2668 -14.3996
-17.4101 -44.6744 -41.4726 -30.614 -33.5924 -38.2005 -44.7906 -23.3056 -23.4651 31.5149
41.7119 52.4342 38.0521 23.2211 20.7511 35.1666 27.0913 0.820601 0.983755 2.09456
33.5913 24.4711 16.468 21.5506 2.1752 3.34339 3.8533 3.70354 0.489698 3.97088
3.89616 1.38807 -8.56691 -7.06797 -1.06364 -9.61193 14.7955 9.20543 10.8681 -48.5803
-51.2459 -51.3072 -48.681 -77.6071 -76.3274 -79.523 -45.4405 -10.8986 -16.9817 -25.1256
-55.4245 -52.3099 -55.5526 -56.6116 -75.2047 -74.9817 -58.8973 -60.2323 -47.6141 -52.8432
-53.5585 -54.2836 2.38976 2.44388 -1.24504 6.30053 5.78899 4.09447 5.11338 6.20371
6.51522 -49.9436 -48.0691 -64.0243 -63.1142 78.6033 93.6481 85.2283 111.724 106.014
88.4753 89.8122 161.609 163.913 153.045 121.272 98.0835 104.041 96.9654 117.266
-11.8448 -25.5485 -29.4913 -4.91288 -24.8876 -51.6274 -40.2312 -5.44782 94.0047 101.461
86.9585 78.4361 96.7469 88.5104 107.792 148.595 158.303 167.461 165.123 106.564
102.887 159.742 -36.8765 -11.1823 -44.0791 -30.8468 -49.3782 139.995 139.843 115.372
110.373 109.979 115.249 139.333 138.707 107.849 167.022 170.644 171.784 172.097
173.514 186.481 186.673 174.618 173.07 -31.1515 -38.5865 -31.2953 -55.3473 -49.7399
-41.5534 -40.6806 -39.2246 -24.0299 4.05164 -1.25506 0.712515 173.194 175.146 187.028
172.19 186.354 186.991 175.047 172.139 179.557 181.677 170.095 168.862 179.899
167.762 171.016 182.414 -55.4537 -44.85 -42.547 -54.3454 -55.0511 -55.0687 -41.1153
-50.242 -40.8865 -41.5235 -49.5711 -49.5162 -7.0913 -13.4267 -30.375 -30.017 -31.3703
-42.3679 -31.3926 -31.0794 -41.9114 -19.7944 -17.5466 -19.2933 115.225 139.944 137.97
138.867 114.519 109.166 170.004 169.849 170.408 167.624 136.27 108.29 113.45
137.005 -52.6223 -48.8139 -51.6364 -50.7596 -53.9483 -50.0595 89.6625 92.923 78.17
-13.2589 -4.62247 -4.27743 -18.1136 55.5089 57.5033 71.0847 74.3271 -56.4317 -55.4757
-55.7889 -56.3642 -57.8362 -58.2741 -58.6935 -58.5365 -57.8025 -57.8173 -57.6917 -58.0541
-129.821 -104.875 -73.7969 -91.1198 -93.4762 -93.9031 -93.8996 -78.2188 -80.1523 -93.8147
-71.8643 -86.7325 -134.633 -138.276 -130.495 -97.4924 -98.2871 -57.1277 -56.5398 -56.9346
-57.8117 -57.8312 -56.527 -56.1965 7.88468 8.35879 13.8787 16.9861 13.8001 -50.2846
-49.5299 -44.8466 -45.3112 -47.1271 -47.0566 -47.0622 -47.0041 14.8113 13.9618 19.0188
6.33429 5.7388 7.54342 8.22919 8.39189 7.09376 5.5838 6.45635 10.7684 13.8226
12.0183 -2.66908 -5.51273 -8.09451 4.88367 2.98051 1.48866 3.97239 5.11356 -54.1134
-55.0379 -55.5918 -55.1731 -52.2666 -53.0844 13.8288 16.5027 17.8188 -47.3636 -49.0239
-49.6242 -47.2375 -47.0003 12.0918 11.7618 11.8126 10.4063 6.83979 -8.32543 -6.87334
5.13037 3.36011 3.04826 -52.2069 -52.6806 146.138 148.166 140.556 136.59 112.822
117.866 125.3 120.706 184.404 185.66 182.025 178.254 -58.4978 -58.6864 -54.875
-54.6788 169.498 183.267 184.956 172.852 174.292 186.445 170.903 182.084 169.501
179.28 -21.6488 -25.2577 -30.0268 -36.0385 -34.1007 -30.9681 -7.28237 -1.97104 -2.48012
-7.62866 -12.6238 -12.227 -1.29293 -9.30422 -10.1731 -15.4676 -18.4485 -8.78815 -9.45097
-25.3895 -20.7768 -9.52753 -0.599383 -3.01902 7.07031 -2.48302 7.05527 7.87775 2.22409
2.68935 3.54372 3.27739 8.50432 6.76705 4.51272 6.24772 -18.579 -15.281 -25.5411
-20.4558 -56.9799 -58.1394 -58.5459 -58.5645 3.34522 3.53068 5.70887 6.15168 4.82694
5.56792 -15.3054 -41.2151 -58.0349 -66.2594 -54.3067 -32.8879 -58.5724 11.3144 10.7483
10.7749 -4.71048 -1.61764 13.3793 19.964 7.73662 24.7557 21.5445 10.8727 0.016385
6.69278 8.56601 14.6625 12.4172 4.07471 -56.511 -42.5932 -47.2231 -11.24 -41.1542
-22.5775 -57.0957 -79.444 108.229 92.2822 105.751 107.917 112.303 111.395 172.673
171.794 173.052 172.376 171.047 185.791 185.792 185.012 -58.9216 -59.0356 174.422
-56.7864 -56.8019 -58.4025 -58.4489 -58.4568 -57.6766 -150.842 -138.366 -138.247 -134.279
-158.126 -138.147 -134.233 -134.55 -121.083 -117.22 -82.0757 -74.0761 -74.602 -71.8025
-121.595 -122.822 -57.7427 -57.1165 -55.5231 -58.3952 10.6359 8.30973 11.6919 9.1031
12.1638 13.0857 13.5726 14.4449 15.1768 -54.3726 -53.5717 -54.3906 -53.2686 -52.0957
-51.7197 -52.0781 -53.1956 -6.63254 -0.82377 -1.5969 -4.99534 7.56656 7.6653 5.57138
4.976 6.76037 8.07574 7.27434 5.93719 -1.89514 6.41823 4.76537 4.67466 9.47984
11.2559 10.0071 12.5475 12.0787 -53.8053 -54.2696 -47.729 -47.7706 -47.8212 -47.7732
-47.5905 -46.0449 -46.7192 -46.7255 -46.8991 -46.7665 -48.1679 -69.0216 -68.5483 -53.7497
-55.7327 -72.8701 -63.9388 -73.5651 -119.312 -123.578 -131.12 -74.7674 -92.3696 -102.712
-75.6764 -93.8236 128.351 113.153 148.179 151.41 -56.6373 -56.531 -57.0995 -57.4328
-54.7483 143.751 167.746 145.999 -46.1064 -45.5882 -45.7326 -46.2427 -45.586 -45.6254
-45.5803 -45.3275 -14.5481 -16.4877 -18.8621 -17.5775 -20.7245 -23.9423 -26.653 -23.8365
-25.1554 75.0175 85.8422 -56.421 51.9796 76.8884 65.2332 75.0918 60.576 13.2549
10.2566 45.1185 36.0468 5.8716 6.91023 2.37795 3.73868 3.37335 5.13447 4.44995
5.00765 5.42391 5.78276 -47.7139 -47.2833 -47.0976 -47.339 -2.68761 -3.33809 -3.9377
0.779755 5.07468 4.16764 7.33937 6.29809 -46.7095 -46.9951 -46.9417 137.831 135.901
170.949 184.584 188.951 189.241 186.699 185.153 -58.2751 -58.191 -58.2421 -58.7572
-55.1734 -46.5483 -46.9878 -46.4898 -45.9998 -45.9111 -46.703 -56.6645 -56.6918 -57.4776
-57.895 -58.0384 -58.027 -58.187 -57.9785 -57.0597 -110.886 -106.368 -136.579 -112.957
-135.968 -123.824 -125.368 -135.323 -56.7769 -57.767 -55.767 -56.6149 14.6969 13.379
12.4482 13.5148 13.774 14.453 -35.0049 -34.541 -29.9982 -29.2498 -40.2339 -40.6961
-45.4115 -45.0537 -50.2206 -50.2579 -44.301 -51.3727 -51.2766 -6.98881 -1.37337 -12.4041
-2.8482 -1.46157 7.13908 7.0905 7.60889 2.38577 8.77537 6.47612 7.43257 8.18445
8.90863 9.31229 9.37271 10.9016 10.4849 -1.37567 10.8572 12.4044 13.6797 -1.19838
-2.13976 -2.60361 -1.31057 -57.6701 -56.963 -56.9981 -55.2205 -50.5077 -49.5087 -46.2132
-49.7427 -51.2909 -54.2846 -56.2584 -53.818 -54.0056 -53.7978 -46.1611 -51.2591 -47.0554
-0.439196 -52.2537 -53.1678 140.633 131.395 129.004 129.013 129.396 113.795 106.33
188.492 187.966 186.957 -50.9773 -51.2534 0.159293 0.718244 1.72166 -28.1422 -28.8715
186.049 186.833 180.337 183.365 181.979 181.572 -39.7044 -36.2477 -1.73542 -6.64556
-4.91951 -1.86077 -23.4321 -12.504 -9.53754 -12.0165 -18.5435 -4.77206 80.4894 56.2523
60.8533 20.9875 21.4376 67.8043 110.462 10.7029 7.4887 -2.39781 -2.60692 7.29387
8.07595 8.431 6.65682 7.0089 24.9859 17.132 1.17524 20.6836 -4.7883 2.3993
8.76893 8.64858 67.9031 110.033 -47.4623 -49.3827 19.0108 91.1146 108.539 101.03
93.5237 108.952 109.799 127.094 134.91 143.637 -58.4454 81.1046 73.0513 49.7873
14.464 20.368 18.5478 -71.5576 -57.8214 -57.8194 -57.8258 -55.6201 -55.5562 -60.5047
-55.7736 -60.4388 -61.0609 24.4278 -5.81874 5.95879 10.6085 11.3851 -4.03281 -4.17655
-5.33831 -47.8626 -46.7234 -1.11775 2.19023 2.4937 -55.5136 -54.9024 -55.0223 8.26969
8.1022 2.98015 -54.5853 42.4391 49.0489 -67.1851 -59.2562 16.8005 14.3334 7.15535
5.67715 3.66377 6.65434 5.53629 -47.5196 -47.4491 -47.6031 -47.7647 -49.2044 -47.2069
-46.9384 -54.6674 -55.087 -55.1525 -54.4365 -55.7857 -55.2472 -55.0756 -54.7196 3.0358
-46.9339 -53.213 -51.8053 100.093 128.751 144.362 154.851 167.813 162.636 160.436
148.399 188.025 -54.1995 -56.4453 -53.5846 -6.05684 -9.10582 -1.87982 -46.4498 -46.5511
-45.9239 -45.6667 -50.4931 -47.0079 -46.019 -45.2779 -45.9852 -46.3934 29.4835 21.0578
-107.905 -114.961 -114.692 -115.405 -115.801 -75.1431 -97.9279 -75.1461 14.4468 17.7285
-12.8089 12.8396 11.6097 -11.7884 -14.2223 1.10088 -1.89453 -3.49786 -4.89178 -7.2188
-8.70445 -6.50139 0.140115 0.234977 -5.47149 -1.62321 0.453394 -2.61547 -4.70906 14.2968
18.4974 -50.01 5.18417 10.2992 7.34556 13.9494 4.18911 8.09542 11.1597 12.6471
0.83493 1.12671 6.17355 5.49373 -4.65991 -6.83611 -9.38231 -9.28082 3.26807 -1.21916
2.7177 9.52005 17.2845 19.109 8.28857 4.56383 0.908997 0.47325 6.63491 11.2019
11.9709 12.8317 11.641 4.61595 -6.1491 4.46623 -5.0815 -0.0278444 -6.17666 0.227045
11.6269 8.65145 13.0892 6.88686 10.39 12.2086 11.4141 11.1116 8.24072 9.57739
10.1008 10.3395 7.80399 8.08331 8.19385 6.32258 -7.54916 -12.1282 -9.94915 5.67961
5.85677 8.52406 4.99 -12.1683 -13.9196 0.113154 7.03863 5.03203 -3.48493 4.57865
-138.6 -139.393 -139.601 11.4453 -55.0446 -53.626 -53.6232 4.73579 9.0443 4.75771
6.99155 11.8811 -55.1839 -55.0169 -54.1672 -53.6913 -56.6461 -56.2437 -56.6969 -64.6177
-111.112 -114.825 -108.86 -115.894 -45.7748 -46.1007 -45.816 -45.6575 -45.4043 -45.7447
-21.819 -21.8487 -24.3133 -47.3802 -47.2743 -47.2281 3.66465 -0.984365 3.88596 3.26761
-47.1646 -47.2366 -47.2587 141.387 150.773 -58.3943 -50.968 14.388 14.8708 11.2941
6.394 9.47347 16.2304 4.69759 3.84736 5.17315 4.14416 -47.3974 -57.3545 -57.1649
-55.7464 7.28469 16.8424 11.6642 3.71766 4.03263 10.5212 9.61657 10.036 9.41947
10.7095 13.0126 10.4828 5.40462 9.16981 8.87213 -49.2205 -46.5097 -46.3834 92.0566
81.5456 85.105 68.3551 74.1322 -4.08048 -2.19275 0.868621 -0.956582 7.79285 8.44501
7.98019 8.41205 8.32285 7.68019 6.84187 117.378 107.147 95.0959 -75.0672 -57.704
-56.3461 -55.3214 -54.969 -54.6972 -54.551 163.295 139.586 161.719 161.842 8.69711
5.85234 11.7445 12.4455 7.70032 9.38597 7.83317 7.45898 6.58635 3.17687 -2.31089
5.18102 5.94838 6.52314 4.22821 6.91083 15.2791 9.74085 -16.4594 17.7296 12.6822
5.34577 8.99694 16.8427 9.49808 -16.7363 -17.9736 -15.0932 -5.51879 -7.95211 -16.8561
7.11595 4.02334 -18.9678 -20.2667 3.07971 1.8368 -4.47825 -6.81961 -47.5269 -46.2337
14.1034 1.60489 -0.196836 -0.454482 6.23637 5.81307 6.75065 6.30469 6.23748 5.66524
-2.27039 5.27795 6.5438 -3.05335 5.38127 3.75021 7.47127 6.76098 6.24547 107.284
88.0289 122.781 124.66 4.35813 3.89412 1.35916 -47.575 4.24477 6.26596 5.88989
-8.90415 -11.6654 0.103157 5.46498 6.52747 5.05829 8.53532 4.3195 7.03452 2.23677
36.4578 -47.5856 -55.4676 -54.9706 -54.9032 -55.0353 -8.46021 -10.5416 -16.5042 -16.3671
-16.3914 -6.05663 5.92369 0.354528 3.36265 4.56497 -0.581945 -0.531318 -3.14421 -4.05382
-13.8326 -7.12955 -6.28319 -14.0413 -6.85763 -15.4201 4.1329 -14.5962 -16.3287 -5.4892
0.55924 6.10785 5.81086 5.67295 9.43435 -2.33998 6.72401 -2.61348 -1.22151 4.52112
-3.43311 7.28405 4.62279 -9.05687 8.84053 -0.8053 6.43647 1.43701 1.73378 5.23838
5.5263 4.5733 5.32936 0.0277404 7.7541 8.56883 4.44133 5.81097 -0.0665089 2.7046
11.5089 5.07455 -1.12051 -0.227449 1.60734 172.903 176.776 176.196 180.954 169.189
168.213 172.806 179.785 180.78 69.0044 73.2267 54.3074 -57.1225 -40.1022 -36.8958
-35.083 -29.2742 -48.8834 -45.8294 -45.8441 -53.4032 -50.8557 100.307 154.728 162.268
155.397 147.412 -58.3703 -58.2567 -57.92 -58.2077 -56.7398 -58.2522 -55.9244 -56.1622
-56.0755 5.36911 1.08234 171.087 -16.9589 185.846 190.121 189.265 -50.4965 -46.354
182.685 185.909 185.964 -20.8546 -45.8385 85.7034 -55.324 -55.4637 -55.7801 -55.7025
-53.6357 189.239 -0.935745 189.436 185.409 189.013 8.37458 -60.6646 110.089 109.423
-57.2811 1.87582 -52.0288 -54.5927 -52.1937 -139.894 139.338 -55.2163 158.891 -52.3736
-115.88 -115.803 73.8623 7.22672 1.41641 168.212 164.818 -14.5145 139.596 190.971
189.859 185.237 189.227 190.691 189.653 172.614 191.024 186.618 189.807 191.053
0.608093 0.603658 0.628803 0.697409 0.908746 1.59754 2.1594 -4.14658 1.23209 0.0995423
-4.12898 -5.9431 0.429519 0.0609102 -0.0236411 0.0085288 0.0161091 -0.00469357 -0.0198396 -0.0158986
-0.00187265 0.00860078 0.0102323 0.00289002 -46.7178 -45.6648 -129.019 -129.562 -45.4872 -45.6169
-45.5616 -45.3997 -45.5352 -45.5106 -45.4053 -45.1746 -96.5061 -75.9497 -45.6643 -45.5795
-75.362 -45.5993 -45.4631 -45.4227 -45.4784 -94.2911 -106.11 -124.499 -114.822 -114.608

U 3 2021 float
20.0103 -0.0383809 -0.213371 20.047 -0.0239025 -0.072208 19.933 -0.00238662 -0.0952607 19.9424 -0.0477916
-0.601692 20.0195 -0.0492057 0.0412278 20.0198 -0.0490983 0.0412936 20.169 -0.0666915 0.0579836
20.2333 -0.074263 0.065642 20.2785 -0.0779443 0.14605 20.2929 -0.0972093 0.260117 20.2128
-0.0991386 0.204611 19.9618 -0.0407333 0.0210115 19.999 -0.0452843 0.0194225 20.0063 -0.0438298
0.00795191 19.8727 -0.0246648 0.0191826 19.8719 -0.02137 0.0157356 20.0089 -0.0434896 0.00262012
19.8747 -0.0196387 0.0115219 20.0074 -0.0429446 0.00130645 19.8739 -0.0181897 0.0109639 20.0057
-0.0426004 0.000881893 19.8726 -0.0170708 0.010955 20.0046 -0.0423015 0.000629095 19.8717 -0.0160751
0.0108175 20.0035 -0.0420011 0.000386784 19.871 -0.0151193 0.0105111 20.0022 -0.0416953 0.000135624
19.8701 -0.0142048 0.0101399 20.0008 -0.0413723 -0.00010125 19.8692 -0.0133481 0.00975137 19.9994
-0.0410332 -0.000241288 19.8683 -0.0125356 0.00952461 19.9979 -0.0405729 -0.00038234 19.8675 -0.0116055
0.00919032 19.8671 -0.0110997 0.00888368 19.9977 -0.0403275 -0.000459933 19.9996 -0.000274909 3.16089e-05
20 0 0 20 0 0 19.9996 -0.000276979 7.9791e-05 19.9983
-0.000621693 9.30308e-05 19.9984 -0.000634903 0.00027738 19.9943 -0.00123708 0.000358729 19.9943 -0.00122201
0.000978181 19.9793 -0.00214422 0.000304205 19.98 -0.00245156 0.00346683 19.9483 -0.00355751 -0.00905073
19.9381 -0.00451667 -0.00826433 19.941 0.00423175 -0.0143309 19.9314 -0.00229601 -0.0292457 19.91
0.00830291 -0.0601427 20.2341 -0.0617107 0.00282522 20.0515 -0.0221304 -0.0549186 20.2363 -0.0607488
0.00629381 19.9406 -0.0798046 0.0226186 20.0299 -0.101914 0.0772704 20.233 -0.0742395 0.0651437
19.8742 -0.0299946 0.0247588 19.3164 0.112054 0.0158488 19.348 0.111078 0.0164125 19.3754
0.106153 0.0162748 19.3956 0.10205 0.016877 19.413 0.0983636 0.0173985 19.4292 0.0949722
0.0175272 19.4444 0.0918671 0.0173886 19.4586 0.0890372 0.01715 19.4719 0.0864346 0.0168805
19.484 0.0840447 0.0166944 19.4981 0.0817151 0.0163933 19.5068 0.0804988 0.0161363 20
0 0 19.9996 -0.00027985 0.000138363 19.9985 -0.000640311 0.000486613 19.9946 -0.00124695
0.00168381 19.9804 -0.0026121 0.00584801 19.9212 -0.00716936 0.00982514 19.9215 -0.00631095 0.000226974
19.8536 -0.0127678 -0.0949287 19.7971 -0.0168448 -0.0690548 19.9637 -0.0407878 -1.01528 20.445
-0.0539023 -0.91495 20.2221 -0.0409866 -0.494235 19.9374 -0.0476603 -0.630842 20.3131 -0.139356
0.446275 20.3135 -0.14014 0.449678 20.1089 -0.213289 0.566435 19.9879 -0.198256 0.273233