# vtk DataFile Version 2.0
tracks
ASCII
DATASET POLYDATA
POINTS 2595 float
-1.001 -0.05 0.0011 -0.900789 -0.0500215 0.00109731 -0.800577 -0.050043 0.00109463 -0.700366 -0.0500644
0.00109196 -0.600155 -0.0500857 0.00108929 -0.499943 -0.0501071 0.00108663 -0.424945 -0.050111 0.00107895
-0.349947 -0.0501518 0.00106884 -0.274949 -0.0501922 0.00105882 -0.19995 -0.0502323 0.0010489 -0.124952
-0.050272 0.00103908 -0.0499538 -0.0502814 0.00103932 0.0250446 -0.0502902 0.00104806 0.100043 -0.050299
0.00105687 0.175041 -0.0503078 0.00106576 0.25004 -0.0503168 0.00107472 0.400037 -0.0503107 0.0010908
0.550035 -0.0503087 0.00110502 0.700032 -0.0503068 0.00111942 0.85003 -0.0503048 0.00113401 1.00003
-0.0503028 0.0011488 1.15003 -0.0503135 0.00115599 1.30002 -0.0503191 0.00116047 1.45002 -0.0503247
0.00116496 1.60002 -0.0503304 0.00116947 1.75002 -0.0503361 0.00117399 1.90002 -0.0503446 0.00117686
2.05002 -0.050351 0.00117878 2.20001 -0.0503574 0.00118072 2.35001 -0.0503639 0.00118265 2.50001
-0.0503703 0.00118459 2.65001 -0.0503782 0.00118563 2.80001 -0.0503863 0.00118632 2.95001 -0.0503943
0.00118701 3.10001 -0.0504023 0.0011877 3.25001 -0.0504103 0.00118839 3.40001 -0.0504182 0.00118867
3.55001 -0.0504269 0.00118925 3.70001 -0.0504357 0.00118982 3.85001 -0.0504444 0.0011904 4.00001
-0.0504532 0.00119098 4.15 -0.0504609 0.00119105 4.3 -0.0504705 0.00119172 4.45 -0.05048
0.0011924 4.6 -0.0504895 0.00119307 4.75 -0.0504991 0.00119374 4.9 -0.0505067 0.00119374
5.05 -0.0505167 0.00119457 5.2 -0.0505267 0.0011954 5.35 -0.0505368 0.00119623 5.5
-0.0505468 0.00119706 5.65 -0.0505543 0.00119702 5.8 -0.0505647 0.00119801 5.95 -0.050575
0.001199 6.1 -0.0505854 0.00119999 6.25 -0.0505958 0.00120099 6.4 -0.0506032 0.00120091
6.55 -0.0506137 0.00120204 6.7 -0.0506243 0.00120317 6.85 -0.0506349 0.0012043 7
-0.0506454 0.00120543 7.15 -0.0506528 0.00120534 7.3 -0.0506635 0.00120657 7.45 -0.0506742
0.00120781 7.6 -0.0506849 0.00120904 7.75 -0.0506957 0.00121028 7.9 -0.050703 0.00121017
8.05 -0.0507138 0.0012115 8.2 -0.0507246 0.00121282 8.35 -0.0507355 0.00121415 8.5
-0.0507463 0.00121548 8.65 -0.0507535 0.00121537 8.8 -0.0507644 0.00121677 8.95 -0.0507753
0.00121817 9.1 -0.0507863 0.00121957 9.25 -0.0507972 0.00122098 9.4 -0.0508044 0.00122085
9.55 -0.0508612 0.00122298 9.7 -0.0509691 0.00122584 9.85 -0.0511281 0.00122944 10
-0.0513382 0.00123378 -1.001 -0.05 0.0537316 -0.900807 -0.0501056 0.0535766 -0.800614 -0.0502114
0.0533943 -0.700421 -0.0503406 0.0531784 -0.600229 -0.0505008 0.052927 -0.500035 -0.0506917 0.0526401
-0.425004 -0.050939 0.052418 -0.349973 -0.0512755 0.052129 -0.274943 -0.0516592 0.051861 -0.199912
-0.0520765 0.0516354 -0.124879 -0.0524782 0.0514921 -0.0498864 -0.0527437 0.0515293 0.0251065 -0.0529628
0.0516952 0.100099 -0.0531771 0.0519295 0.175092 -0.0534007 0.0522119 0.250087 -0.0536195 0.0525293
0.400077 -0.0540037 0.0531648 0.550067 -0.0543858 0.0536795 0.700057 -0.0547268 0.0541456 0.850047
-0.0550266 0.0545626 1.00003 -0.0552931 0.05493 1.14685 -0.05566 0.0552082 1.29366 -0.0559954
0.0554678 1.44047 -0.0563281 0.0556937 1.58729 -0.0566582 0.0558859 1.70469 -0.0569201 0.0560127
1.71375 -0.0569411 0.0560211 1.72282 -0.0569622 0.0560295 1.73189 -0.0569834 0.0560378 1.74095
-0.0570047 0.056046 1.75002 -0.0570261 0.0560541 1.90002 -0.0573818 0.0561873 2.05002 -0.0577331
0.0563033 2.20001 -0.0580807 0.0564016 2.35001 -0.0584243 0.0564822 2.50001 -0.0587641 0.0565452
2.65001 -0.0591092 0.0565971 2.80001 -0.0594538 0.0566422 2.95001 -0.0597977 0.0566797 3.10001
-0.0601407 0.0567094 3.25001 -0.0604829 0.0567315 3.40001 -0.0608262 0.0567485 3.55001 -0.0611707
0.0567648 3.70001 -0.0615138 0.056779 3.85001 -0.0618554 0.0567913 4.00001 -0.0621955 0.0568014
4.15 -0.0625335 0.0568092 4.3 -0.0628752 0.056818 4.45 -0.0632155 0.056826 4.6
-0.0635543 0.0568333 4.75 -0.0638916 0.0568398 4.9 -0.0642241 0.056844 5.05 -0.064562
0.0568502 5.2 -0.0648985 0.056856 5.35 -0.0652336 0.0568614 5.5 -0.0655674 0.0568664
5.65 -0.0658945 0.0568689 5.8 -0.066228 0.0568739 5.95 -0.0665602 0.0568786 6.1
-0.0668912 0.0568832 6.25 -0.067221 0.0568875 6.4 -0.0675429 0.0568888 6.55 -0.0678719
0.0568931 6.7 -0.0681997 0.0568973 6.85 -0.0685263 0.0569013 7 -0.0688517 0.0569052
7.15 -0.0691684 0.0569058 7.3 -0.0694928 0.0569097 7.45 -0.0698161 0.0569136 7.6
-0.0701381 0.0569173 7.75 -0.070459 0.0569209 7.9 -0.0707707 0.056921 8.05 -0.0710904
0.0569247 8.2 -0.071409 0.0569284 8.35 -0.0717264 0.056932 8.5 -0.0720427 0.0569357
8.65 -0.0723493 0.0569357 8.8 -0.0726643 0.0569394 8.95 -0.0729781 0.056943 9.1
-0.0732908 0.0569466 9.25 -0.0736022 0.05695 9.4 -0.0739037 0.0569495 9.55 -0.0742143
0.056953 9.7 -0.0745243 0.0569565 9.85 -0.0748338 0.0569599 10 -0.0751428 0.0569633
-1.001 -0.05 0.106363 -0.900818 -0.0500775 0.106138 -0.800636 -0.0501528 0.105866 -0.700455
-0.0502546 0.105547 -0.600274 -0.0504264 0.105006 -0.50009 -0.050668 0.104245 -0.424996 -0.0509541
0.103661 -0.349901 -0.0513013 0.103056 -0.274807 -0.0516528 0.102521 -0.199711 -0.0519498 0.102093
-0.124607 -0.0522908 0.101992 -0.0496046 -0.0525377 0.102105 0.0253975 -0.0527296 0.102336 0.100399
-0.0529086 0.102648 0.175401 -0.0531079 0.103045 0.250411 -0.0533274 0.103527 0.400346 -0.0537318
0.104526 0.550283 -0.054135 0.105398 0.70022 -0.0544995 0.106182 0.850157 -0.0548335 0.106799
1.00009 -0.0551368 0.107249 1.15007 -0.0555758 0.107514 1.30006 -0.0558708 0.10781 1.45005
-0.056115 0.108086 1.60003 -0.0563533 0.10833 1.75002 -0.0565856 0.10854 1.90002 -0.0568921
0.108685 2.05002 -0.0571351 0.10884 2.20001 -0.0573722 0.108979 2.35001 -0.0576069 0.109101
2.50001 -0.057839 0.109206 2.65001 -0.0581277 0.109275 2.80001 -0.0583743 0.109342 2.95001
-0.0586196 0.109402 3.10001 -0.0588643 0.109455 3.25001 -0.0591082 0.109499 3.40001 -0.0593953
0.109534 3.55001 -0.0596458 0.109567 3.70001 -0.0598945 0.109598 3.85001 -0.0601415 0.109627
4 -0.060387 0.109654 4.15 -0.0606681 0.10968 4.3 -0.0609186 0.109701 4.45
-0.0611673 0.109722 4.6 -0.0614144 0.109741 4.75 -0.0616601 0.10976 4.9 -0.0619347
0.109783 5.05 -0.0621833 0.109798 5.2 -0.0624303 0.109812 5.35 -0.0626758 0.109827
5.5 -0.06292 0.10984 5.65 -0.0631882 0.109861 5.8 -0.0634343 0.109872 5.95
-0.063679 0.109882 6.1 -0.0639223 0.109893 6.25 -0.0641644 0.109903 6.4 -0.0644267
0.109922 6.55 -0.0646699 0.10993 6.7 -0.0649118 0.109937 6.85 -0.0651525 0.109945
7 -0.0653919 0.109952 7.15 -0.0656484 0.10997 7.3 -0.0658885 0.109976 7.45
-0.0661274 0.109981 7.6 -0.066365 0.109986 7.75 -0.0666015 0.109991 7.9 -0.0668523
0.110009 8.05 -0.0670892 0.110012 8.2 -0.0673248 0.110016 8.35 -0.0675593 0.110019
8.5 -0.0677926 0.110023 8.65 -0.068038 0.11004 8.8 -0.0682713 0.110043 8.95
-0.0685034 0.110045 9.1 -0.0687343 0.110047 9.25 -0.0689641 0.110049 9.4 -0.0692038
0.110066 9.55 -0.0694339 0.110067 9.7 -0.0696633 0.110068 9.85 -0.0698923 0.110069
10 -0.0701209 0.110069 -1.001 -0.05 0.158995 -0.900796 -0.050088 0.15877 -0.800593
-0.0501919 0.158424 -0.700392 -0.0503528 0.157689 -0.600196 -0.0505835 0.156478 -0.499992 -0.0508758
0.15464 -0.42472 -0.0514815 0.153039 -0.349437 -0.0519472 0.152121 -0.274149 -0.0523419 0.15156
-0.19886 -0.0527346 0.15127 -0.1237 -0.0530497 0.151325 -0.0487805 -0.0531711 0.151489 0.0261373
-0.0532476 0.151971 0.101053 -0.0533852 0.152675 0.175968 -0.0535498 0.153473 0.250944 -0.0537017
0.154301 0.400784 -0.0539097 0.155721 0.550625 -0.0544128 0.156898 0.700468 -0.0548819 0.157651
0.850313 -0.0552775 0.158249 1.00014 -0.0556423 0.15868 1.15012 -0.0561434 0.158925 1.30009
-0.0565002 0.159202 1.45007 -0.056764 0.15947 1.60005 -0.0569512 0.159725 1.75002 -0.0571325
0.159946 1.90002 -0.057389 0.160101 2.05002 -0.0575815 0.160267 2.20002 -0.0577618 0.160419
2.35001 -0.0579334 0.160555 2.50001 -0.0581026 0.160674 2.65001 -0.0583288 0.160758 2.80001
-0.0585127 0.16084 2.95001 -0.0586943 0.160915 3.10001 -0.0588743 0.160983 3.25001 -0.0590537
0.161043 3.40001 -0.0592762 0.161093 3.55001 -0.0594624 0.161142 3.70001 -0.0596457 0.161189
3.85001 -0.0598268 0.161235 4 -0.0600064 0.161279 4.15 -0.0602214 0.161321 4.3
-0.0604061 0.161359 4.45 -0.0605882 0.161396 4.6 -0.0607681 0.161432 4.75 -0.0609466
0.161468 4.9 -0.0611538 0.161508 5.05 -0.0613353 0.16154 5.2 -0.0615146 0.161571
5.35 -0.0616919 0.161603 5.5 -0.0618679 0.161634 5.65 -0.0620677 0.161671 5.8
-0.0622456 0.161699 5.95 -0.0624217 0.161727 6.1 -0.062596 0.161755 6.25 -0.0627691
0.161782 6.4 -0.0629619 0.161818 6.55 -0.0631362 0.161843 6.7 -0.0633087 0.161868
6.85 -0.0634797 0.161892 7 -0.0636494 0.161916 7.15 -0.0638357 0.161952 7.3
-0.0640061 0.161974 7.45 -0.064175 0.161996 7.6 -0.0643423 0.162019 7.75 -0.0645086
0.16204 7.9 -0.0646886 0.162075 8.05 -0.0648552 0.162095 8.2 -0.0650203 0.162116
8.35 -0.065184 0.162136 8.5 -0.0653466 0.162157 8.65 -0.0655208 0.162191 8.8
-0.0656834 0.16221 8.95 -0.0658444 0.162229 9.1 -0.0660041 0.162248 9.25 -0.0661626
0.162267 9.4 -0.0663306 0.1623 9.55 -0.0664894 0.162317 9.7 -0.0666474 0.162335
9.85 -0.0668046 0.162352 10 -0.0669614 0.162368 -1.001 -0.05 0.211626 -0.947632
-0.0500803 0.211469 -0.894263 -0.0501651 0.211279 -0.840895 -0.0502545 0.211054 -0.787527 -0.0503884
0.210764 -0.724315 -0.0506315 0.210286 -0.679437 -0.0509085 0.209636 -0.634564 -0.0512426 0.208758
-0.589694 -0.0515807 0.207743 -0.544828 -0.0519237 0.20659 -0.499928 -0.052273 0.205298 -0.469382
-0.0525668 0.204244 -0.438838 -0.0528708 0.203127 -0.408289 -0.0531592 0.202137 -0.377737 -0.0534331
0.201269 -0.329351 -0.0538517 0.200029 -0.288441 -0.0541896 0.199126 -0.247527 -0.0545274 0.19844
-0.206609 -0.0548693 0.198065 -0.165689 -0.0551755 0.197977 -0.124885 -0.0554074 0.198151 -0.0496129
-0.0557112 0.198864 0.0256569 -0.0558461 0.199815 0.100922 -0.0559532 0.201096 0.176185 -0.0560935
0.202456 0.251487 -0.0562271 0.203609 0.251607 -0.0562273 0.20361 0.251727 -0.0562274 0.203612
0.251847 -0.0562276 0.203613 0.251967 -0.0562278 0.203615 0.252087 -0.056228 0.203617 0.326724
-0.0563396 0.204594 0.401362 -0.0564532 0.205444 0.476002 -0.056569 0.206167 0.550642 -0.0567134
[...]
POINT_DATA 2595
FIELD attributes 4
age 1 2595 float
0 0.00501121 0.0100224 0.0150336 0.0200448 0.025056 0.0288056 0.0325533 0.036301 0.0400487 0.0437965
0.0475449 0.0512905 0.0550361 0.0587817 0.0625272 0.070024 0.0775229 0.0850219 0.0925209 0.10002
0.10752 0.115019 0.122519 0.130019 0.137519 0.145019 0.152519 0.160019 0.167518 0.175018
0.182518 0.190018 0.197517 0.205017 0.212517 0.220017 0.227516 0.235016 0.242516 0.250015
0.257515 0.265015 0.272515 0.280015 0.287514 0.295014 0.302514 0.310014 0.317513 0.325013
0.332513 0.340013 0.347512 0.355012 0.362512 0.370012 0.377512 0.385011 0.392511 0.400011
0.407511 0.415011 0.42251 0.43001 0.43751 0.44501 0.45251 0.460009 0.467509 0.475009
0.482509 0.490009 0.497508 0.505008 0.512508 0.520008 0.527507 0.535005 0.542503 0.55
0 0.00502599 0.0100532 0.0150746 0.0200877 0.0250928 0.0288319 0.032565 0.0362915 0.0400111
0.0437245 0.0474307 0.05113 0.0548275 0.0585248 0.062224 0.0696348 0.0770709 0.0845217 0.0919874
0.0994676 0.106803 0.114138 0.121476 0.128814 0.134684 0.135137 0.13559 0.136044 0.136497
0.13695 0.144451 0.151951 0.15945 0.166949 0.174447 0.181945 0.189443 0.19694 0.204437
0.211934 0.219431 0.226928 0.234425 0.241922 0.24942 0.256917 0.264415 0.271912 0.27941
0.286908 0.294406 0.301904 0.309402 0.3169 0.324399 0.331898 0.339396 0.346895 0.354393
0.361892 0.369391 0.37689 0.384389 0.391888 0.399387 0.406887 0.414387 0.421886 0.429386
0.436886 0.444386 0.451886 0.459386 0.466886 0.474386 0.481887 0.489388 0.496888 0.504389
0.51189 0.519392 0.526892 0.534393 0.541894 0.549395 0 0.00502798 0.0100578 0.0150818
0.0200992 0.0251103 0.0288573 0.0325973 0.036328 0.0400539 0.04377 0.0474748 0.0511737 0.0548716
0.0585685 0.062265 0.0696634 0.0770889 0.0845325 0.0919981 0.0994854 0.106989 0.114493 0.122
0.129509 0.137018 0.144533 0.152042 0.159551 0.167058 0.174565 0.182078 0.189584 0.197089
0.204594 0.212099 0.219611 0.227116 0.234621 0.242126 0.249631 0.257144 0.264649 0.272154
0.27966 0.287166 0.294678 0.302184 0.30969 0.317196 0.324702 0.332215 0.339721 0.347228
0.354734 0.36224 0.369754 0.37726 0.384767 0.392274 0.39978 0.407295 0.414801 0.422308
0.429815 0.437323 0.444837 0.452345 0.459852 0.467359 0.474867 0.482382 0.48989 0.497398
0.504905 0.512413 0.519929 0.527437 0.534945 0.542454 0.549962 0 0.00503009 0.0100662
0.0150994 0.0201268 0.0251493 0.028915 0.0326689 0.0364108 0.0401424 0.0438572 0.0475521 0.0512417
0.0549302 0.058618 0.0623092 0.0696964 0.0771199 0.0845739 0.0920444 0.0995361 0.107048 0.114562
0.12208 0.129602 0.137126 0.144655 0.152178 0.159701 0.167224 0.174746 0.182274 0.189795
0.197315 0.204836 0.212356 0.219883 0.227403 0.234923 0.242443 0.249964 0.257491 0.265011
0.272532 0.280053 0.287574 0.295101 0.302622 0.310143 0.317665 0.325186 0.332714 0.340236
0.347757 0.355278 0.3628 0.370329 0.377851 0.385372 0.392894 0.400416 0.407946 0.415468
0.42299 0.430512 0.438035 0.445564 0.453087 0.46061 0.468132 0.475655 0.483185 0.490708
0.498231 0.505755 0.513278 0.520808 0.528332 0.535855 0.543379 0.550902 0 0.00268273
0.00536715 0.00805325 0.0107387 0.0139174 0.0161727 0.0184275 0.0206816 0.0229349 0.0251891 0.0267203
0.0282495 0.0297757 0.0312989 0.0337057 0.0357328 0.0377543 0.0397703 0.0417807 0.0437799 0.0474587
0.0511388 0.0548202 0.0585082 0.0622089 0.0622148 0.0622207 0.0622266 0.0622325 0.0622384 0.065915
0.0696016 0.0732982 0.0770052 0.0807221 0.0813154 0.0819086 0.0825019 0.0830953 0.0836742 0.0868302
0.0899887 0.0931499 0.0963136 0.0994794 0.107 0.114522 0.122049 0.12958 0.137117 0.14466
0.152197 0.159734 0.16727 0.174807 0.182349 0.189885 0.19742 0.204955 0.212489 0.220031
0.227566 0.2351 0.242635 0.25017 0.257712 0.265247 0.272782 0.280317 0.287853 0.295395
0.302931 0.310466 0.318002 0.325538 0.333081 0.340617 0.348153 0.355689 0.363225 0.370768
0.378305 0.385841 0.393378 0.400914 0.408458 0.415995 0.423532 0.431069 0.438606 0.44615
0.453687 0.461225 0.468762 0.476299 0.483844 0.491382 0.498919 0.506457 0.513995 0.52154
0.529078 0.536616 0.544154 0.551693 0 0.00126444 0.00252925 0.00379475 0.00506105 0.00632817
0.0101157 0.0139115 0.0177189 0.0215329 0.0253293 0.0269136 0.0284876 0.0300547 0.0316147 0.0330109
0.033335 0.0336587 0.0339821 0.0343053 0.0346284 0.0364566 0.0382776 0.0400897 0.0418966 0.0436941
0.0454946 0.0472997 0.0491168 0.0509389 0.0527651 0.0529041 0.053043 0.053182 0.0533209 0.0534662
0.0551572 0.0568511 0.0585478 0.0602474 0.0619496 0.0656454 0.0693581 0.0730888 0.0768302 0.0805806
0.0843441 0.0881068 0.0918701 0.0956362 0.0994047 0.10694 0.114478 0.12202 0.129566 0.137116
0.144682 0.152235 0.159787 0.16734 0.174893 0.182453 0.190004 0.197556 0.205107 0.212658
0.220217 0.227767 0.235318 0.242869 0.25042 0.257979 0.26553 0.273081 0.280633 0.288184
0.295743 0.303295 0.310846 0.318398 0.32595 0.333509 0.341061 0.348613 0.356165 0.363717
0.371277 0.378829 0.386382 0.393934 0.401487 0.409047 0.416599 0.424152 0.431705 0.439258
0.446818 0.454371 0.461924 0.469477 0.47703 0.484591 0.492145 0.499698 0.507251 0.514805
0.522366 0.529919 0.537473 0.545026 0.55258 0 0.00126544 0.0025314 0.00379787 0.00506486
0.00633238 0.00822675 0.0101235 0.0120227 0.0139248 0.0158289 0.0177464 0.0196687 0.0215919 0.0235184
0.0254571 0.0264282 0.0273967 0.0283607 0.0293202 0.0302796 0.0307563 0.0312314 0.0317044 0.0321753
0.0326905 0.0331446 0.0335966 0.0340468 0.0344949 0.0349405 0.0358508 0.0367578 0.0376608 0.0385595
0.0394494 0.0403385 0.0412261 0.042113 0.0429997 0.0438869 0.0452149 0.0465494 0.0478907 0.0492378
0.0492402 0.0499684 0.0506979 0.0514289 0.0521613 0.0528946 0.0547233 0.0565657 0.0584194 0.0602798
0.062141 0.0640122 0.0658845 0.0677589 0.0696359 0.071517 0.0734055 0.0752883 0.0771675 0.0790486
0.0809347 0.0840311 0.0871315 0.0902335 0.0933371 0.0959718 0.0967627 0.0975538 0.098345 0.0991363
0.0999278 0.107521 0.115116 0.122715 0.130317 0.137924 0.145556 0.153163 0.160765 0.168367
0.175968 0.183589 0.191188 0.198786 0.206383 0.213981 0.221597 0.229194 0.23679 0.244386
0.251982 0.259596 0.267193 0.274788 0.282383 0.289979 0.297592 0.305188 0.312783 0.320378
0.327974 0.335585 0.343181 0.350775 0.35837 0.365966 0.373576 0.381171 0.388765 0.39636
0.403954 0.411563 0.419158 0.426752 0.434346 0.441941 0.449548 0.457142 0.464736 0.47233
0.479924 0.487531 0.495125 0.502718 0.510311 0.517905 0.52551 0.533103 0.540696 0.548289
0.555883 0 0.00126279 0.00252625 0.00379074 0.00505641 0.00632326 0.00823328 0.0101453 0.0120611
0.0139802 0.0159046 0.0178219 0.0197521 0.0216951 0.0236509 0.0256291 0.026629 0.0276298 0.0286309
0.0296313 0.0306435 0.0308906 0.0311377 0.0313845 0.0316293 0.0318188 0.0325697 0.033308 0.0340332
0.0347448 0.0354484 0.0358954 0.0363407 0.0367845 0.0372269 0.0376633 0.0381007 0.0385353 0.0389674
0.0393988 0.0398279 0.0402597 0.0406917 0.0411238 0.0415564 0.0419917 0.0424271 0.0428619 0.0432972
0.0437333 0.0441717 0.0450486 0.0459348 0.0468315 0.0477395 0.0486646 0.0493989 0.0501322 0.0508677
0.0516066 0.0525151 0.0526829 0.0528508 0.0530187 0.0531868 0.053355 0.0543092 0.0552619 0.0562168
0.0571749 0.0581349 0.0591039 0.0600721 0.0610413 0.0620135 0.0629874 0.0649564 0.0669203 0.0688789
0.0708418 0.0727876 0.074719 0.0766657 0.0786278 0.0805944 0.0825653 0.0865264 0.090479 0.0944057
0.0983164 0.102231 0.110057 0.117851 0.125575 0.13324 0.140909 0.148607 0.156283 0.163955
0.171622 0.179287 0.186968 0.194632 0.202294 0.209954 0.217613 0.225287 0.232946 0.240604
0.24826 0.255916 0.263586 0.271242 0.278897 0.286551 0.294205 0.30187 0.309524 0.317177
0.324829 0.33248 0.340143 0.347794 0.355445 0.363095 0.370744 0.378403 0.386053 0.393702
0.401349 0.408997 0.416653 0.424301 0.431947 0.439593 0.447239 0.454892 0.462537 0.470182
0.477826 0.48547 0.493121 0.500764 0.508407 0.516049 0.523691 0.531338 0.53898 0.546621
0.554262 0.561902 0 0.00126441 0.00252947 0.00379518 0.00506154 0.00632914 0.00824618 0.0101656
0.0120884 0.0140174 0.0159586 0.0169287 0.0179017 0.0188778 0.0198571 0.0208396 0.0218272 0.0228229
0.0238276 0.0248414 0.0258655 0.0263831 0.0269025 0.0274255 0.0279522 0.0284852 0.028775 0.0290663
0.0293598 0.029656 0.029754 0.0300545 0.0303563 0.030659 0.0309615 0.0312723 0.0313698 0.0314674
0.0315651 0.031663 0.0317344 0.0317684 0.0318024 0.0318365 0.0318705 0.0319029 0.0320666 0.0322301
0.0323934 0.0325566 0.0327212 0.0328997 0.0330779 0.0332556 0.0334304 0.0335594 0.0336653 0.0337706
0.0338753 0.0339791 0.0340843 0.0341955 0.0343051 0.0344132 0.0345203 0.0346077 0.0346613 0.0347147
0.0347678 0.0348206 0.0348722 0.0349701 0.0350677 0.0351648 0.0352614 0.0353559 0.0354775 0.0355977
0.0357165 0.0358341 0.0360249 0.0361263 0.0362272 0.0363279 0.0364284 0.0365188 0.0366052 0.0366918
0.0367783 0.0368648 0.0370217 0.0371443 0.0372667 0.0373889 0.0375108 0.0376312 0.0378502 0.0380677
0.0382851 0.0385034 0.038718 0.0389364 0.0391541 0.0393722 0.0395907 0.039809 0.0400302 0.0402497
0.0404695 0.0406895 0.0409102 0.0411307 0.0413507 0.0415709 0.0417918 0.0420152 0.0422399 0.0424628
0.0426856 0.0429091 0.0431336 0.0434787 0.0438255 0.0441781 0.0445364 0.0447 0.0448522 0.0450048
0.0451576 0.0453107 0.0454649 0.0459518 0.0464315 0.0469114 0.0473869 0.0478827 0.0483991 0.048905
0.0494114 0.0499225 0.0504409 0.0505234 0.0506061 0.0506889 0.0507721 0.0508531 0.0518493 0.0528877
0.0539701 0.0550125 0.0560666 0.0572681 0.058447 0.0596267 0.0608124 0.061998 0.0624289 0.0628587
0.0632882 0.0637181 0.0642074 0.0649783 0.0657419 0.066502 0.0672641 0.0680249 0.068195 0.0683646
0.0685336 0.0687018 0.0688684 0.0698832 0.0708964 0.0719079 0.0729176 0.0739229 0.0750746 0.0762465
0.0774222 0.0785993 0.0797788 0.0813086 0.0828395 0.0843779 0.0859191 0.087932 0.0886012 0.0892677
0.0899318 0.0905933 0.0912519 0.0957572 0.100238 0.104645 0.108962 0.113148 0.121319 0.129427
0.137463 0.145427 0.153312 0.161072 0.168832 0.17659 0.184345 0.192097 0.199846 0.207594
0.215341 0.223086 0.230828 0.238242 0.245656 0.253068 0.260479 0.268028 0.268326 0.268623
0.268921 0.269219 0.269517 0.27725 0.284984 0.292718 0.300452 0.308185 0.315911 0.323645
0.331378 0.339112 0.346846 0.354565 0.362298 0.370031 0.377764 0.385497 0.39321 0.400942
0.408675 0.416407 0.42414 0.431846 0.439578 0.447309 0.455041 0.462773 0.470473 0.478204
0.485934 0.493665 0.501396 0.509091 0.516821 0.52455 0.532279 0.540008 0.547698 0.555425
0.563152 0.57088 0.578607 0 0.00125411 0.00250916 0.00376552 0.00502333 0.0062827 0.008214
0.010148 0.0120848 0.0140286 0.0159868 0.0169595 0.017936 0.0189166 0.0199013 0.0208901 0.0218846
0.0228898 0.0239067 0.0249354 0.025977 0.0265056 0.0270375 0.027576 0.0281214 0.0286756 0.0292412
0.0298144 0.0304006 0.0310009 0.0316276 0.0319465 0.0322653 0.0325849 0.0329054 0.0332405 0.0333106
0.0333807 0.0334508 0.0335209 0.0335783 0.0336562 0.0337326 0.0338081 0.0338829 0.0339457 0.0341168
0.0342847 0.0344493 0.0346104 0.034777 0.0349198 0.0350598 0.0351973 0.0353314 0.0354508 0.035571
0.0356905 0.0358096 0.035927 0.0360387 0.0361561 0.0362705 0.0363819 0.0364928 0.0366394 0.0367463
0.0368529 0.0369594 0.0370657 0.0371632 0.0373574 0.0375516 0.037749 0.0379495 0.0383687 0.0386054
0.038843 0.0390785 0.0393119 0.0395405 0.0400037 0.0404611 0.040915 0.0413658 0.041812 0.042269
0.0427117 0.0431577 0.0436068 0.0440588 0.0445326 0.0450002 0.0454794 0.0459634 0.0464552 0.047319
0.0482029 0.0491007 0.0499734 0.0517963 0.05292 0.0540457 0.0551951 0.0563647 0.0575672 0.0588266
0.0600589 0.0612744 0.0624991 0.0637297 0.0646287 0.0655149 0.0664001 0.0672798 0.0684584 0.0687531
0.0690479 0.0693429 0.0696385 0.0699344 0.0706752 0.0714174 0.0721592 0.0729021 0.0738082 0.0742765
0.0747447 0.0752126 0.0756793 0.076144 0.0773849 0.0786301 0.0798828 0.0811366 0.0823898 0.0848782
0.0873704 0.0898327 0.0922521 0.0946459 0.0994764 0.104259 0.108903 0.11341 0.117764 0.121585
0.125391 0.129183 0.132958 0.137786 0.142062 0.14629 0.15047 0.154604 0.158691 0.166451
0.174219 0.181985 0.18975 0.197514 0.205258 0.213021 0.220783 0.228544 0.236305 0.244039
0.251798 0.259558 0.267317 0.275077 0.282802 0.29056 0.298318 0.306077 0.313835 0.321553
0.32931 0.337067 0.344825 0.352583 0.360294 0.36805 0.375806 0.383562 0.391319 0.399024
0.406779 0.414533 0.422288 0.430044 0.437743 0.445496 0.45325 0.461003 0.468757 0.47645
0.484202 0.491954 0.499706 0.507458 0.515146 0.522896 0.530646 0.538396 0.546146 0.553829
0.561576 0.569322 0.577069 0.584817 0 0.00125903 0.00251873 0.00377912 0.00504092 0.00630438
0.00823305 0.0101647 0.0120992 0.0140412 0.0159972 0.0169701 0.0179471 0.0189282 0.0199134 0.020903
0.0218975 0.0229025 0.0239193 0.0249478 0.0259893 0.0265183 0.0270502 0.0275878 0.0281322 0.0286858
0.0292488 0.0298194 0.0303996 0.0309923 0.0316146 0.0319308 0.0322476 0.0325648 0.0328821 0.0332118
0.0334501 0.033687 0.033922 0.0341508 0.0342475 0.034351 0.0344534 0.0345547 0.0346549 0.0347577
0.0349593 0.0351539 0.035342 0.0355241 0.035679 0.0357576 0.035836 0.0359137 0.0359905 0.0360656
0.0360684 0.0360712 0.036074 0.0360767 0.0360795 0.0362228 0.0363648 0.0365054 0.0366447 0.0368479
0.0369238 0.0369997 0.0370755 0.0371512 0.037223 0.0376823 0.0381468 0.0386244 0.0391096 0.0395243
0.0399865 0.0404378 0.0408877 0.0413396 0.0417987 0.0422738 0.0427394 0.0432018 0.0436666 0.0441405
0.0446316 0.0451134 0.0455903 0.0460723 0.0465679 0.0475987 0.0486519 0.0497164 0.0508001 0.0517236
0.0517627 0.0518017 0.0518407 0.0518797 0.0519188 0.0530431 0.0541941 0.0553726 0.0565741 0.0577942
0.0590615 0.060307 0.0615336 0.0627772 0.0640146 0.0646362 0.0652488 0.0658588 0.0664674 0.0670778
0.0677021 0.0683167 0.0689233 0.0695308 0.070144 0.0713913 0.0726482 0.073902 0.0751508 0.0763892
0.0772363 0.0780756 0.078916 0.0797578 0.0807045 0.0810669 0.0814295 0.0817923 0.0821558 0.0825128
0.0825381 0.0825634 0.0825886 0.0826139 0.0826391 0.085145 0.0876352 0.0901103 0.0925291 0.0949191
0.0996747 0.104384 0.108983 0.113466 0.117807 0.125116 0.132325 0.139403 0.146353 0.159028
0.16434 0.16965 0.17496 0.180268 0.185712 0.188122 0.190533 0.192943 0.195353 0.197763
0.205502 0.213244 0.220985 0.228725 0.236465 0.244193 0.251932 0.259671 0.26741 0.275149
0.282869 0.290607 0.298345 0.306083 0.313821 0.321534 0.329271 0.337009 0.344746 0.352484
0.360191 0.367927 0.375664 0.383401 0.391137 0.398838 0.406574 0.414309 0.422045 0.429781
0.437476 0.44521 0.452945 0.46068 0.468414 0.476104 0.483837 0.49157 0.499304 0.507037
0.514722 0.522454 0.530186 0.537917 0.545649 0.553328 0.561057 0.568787 0.576516 0.584246
0 0.00127992 0.00256047 0.00384229 0.00512558 0.00641036 0.00831679 0.0102257 0.0121374 0.0140556
0.0159859 0.0169579 0.017933 0.0189115 0.0198933 0.0208788 0.0218729 0.0228761 0.0238892 0.0249121
0.0259473 0.0263903 0.026835 0.027283 0.0277345 0.0278579 0.0280065 0.0281554 0.0283044 0.0284534
0.0286027 0.0291462 0.0296938 0.0302487 0.0308125 0.0313971 0.0314724 0.0315477 0.031623 0.0316983
0.0317636 0.0319806 0.0321976 0.0324144 0.0326311 0.0328512 0.0329313 0.0330113 0.0330912 0.0331709
0.03324 0.0334508 0.0336607 0.0338696 0.0340752 0.0342872 0.0343498 0.0344119 0.0344736 0.0345349
0.034588 0.0345933 0.0345986 0.0346038 0.0346091 0.0346144 0.0348296 0.0350402 0.0352464 0.0354452
0.0356355 0.0356573 0.035679 0.0357007 0.0357223 0.0357444 0.0358463 0.0359472 0.0360471 0.0361483
0.0362929 0.0363865 0.0364794 0.0365718 0.0366632 0.0367522 0.036856 0.0369591 0.0370617 0.0371645
0.0373128 0.0374119 0.0375108 0.0376097 0.0377094 0.0378067 0.0380186 0.0382286 0.0384381 0.0386469
0.0388591 0.0390792 0.0392947 0.039506 0.0397173 0.0399313 0.0401475 0.0403621 0.0405756 0.0407898
0.0410065 0.0412277 0.0414455 0.0416619 0.0418786 0.0420963 0.0423152 0.0425326 0.0427499 0.0429675
0.0431864 0.0436318 0.0440774 0.0445263 0.0449785 0.0454389 0.0459178 0.0463846 0.0468435 0.0473053
0.0477807 0.0482636 0.0487446 0.0492254 0.0497102 0.0502028 0.0512196 0.0522421 0.0532766 0.0543646
0.0554701 0.0558285 0.0561873 0.0565471 0.0569085 0.0572898 0.0580877 0.058885 0.059682 0.0604827
0.0612916 0.0624921 0.0636684 0.0648513 0.0660494 0.0672424 0.0684699 0.0696733 0.0708541 0.0720286
0.0731952 0.0736483 0.0741006 0.0745533 0.0750065 0.075451 0.0757667 0.0760826 0.0763987 0.0767149
0.0770395 0.077444 0.0778489 0.0782541 0.0786597 0.0790654 0.0814121 0.0837606 0.0861084 0.0884259
0.0907157 0.0952264 0.0997897 0.10426 0.108585 0.112803 0.121112 0.129392 0.137609 0.145654
0.153529 0.161271 0.169012 0.176749 0.184483 0.192215 0.199942 0.207669 0.215395 0.223118
0.23084 0.237721 0.244601 0.25148 0.258359 0.265248 0.266084 0.26692 0.267755 0.268591
0.269427 0.27714 0.284854 0.292569 0.300283 0.307998 0.315704 0.323418 0.331132 0.338847
0.346561 0.354261 0.361975 0.369689 0.377403 0.385117 0.392811 0.400524 0.408238 0.415951
0.423664 0.431354 0.439066 0.446778 0.454491 0.462204 0.469888 0.477599 0.485311 0.493023
0.500734 0.508414 0.516124 0.523835 0.531545 0.539256 0.54693 0.554638 0.562347 0.570056
0.577765 0 0.00127753 0.00255576 0.00383512 0.00511575 0.00639766 0.00829923 0.0102027 0.0121091
0.0140203 0.0159396 0.0169037 0.0178698 0.0188378 0.019808 0.0207804 0.0217542 0.022733 0.023717
0.0247056 0.0256981 0.0266888 0.0276859 0.0286912 0.0296918 0.0307004 0.0307757 0.0308511 0.0309264
0.0310016 0.031071 0.0319932 0.0328958 0.033778 0.0346391 0.0354975 0.0359455 0.0363912 0.0368348
0.0372773 0.0377144 0.038153 0.0385891 0.0390244 0.039459 0.0398878 0.0403209 0.0407541 0.0411877
0.0416215 0.042056 0.0424922 0.0429273 0.0433633 0.0438002 0.044239 0.0451171 0.0460038 0.0468969
0.0477977 0.0487233 0.0496704 0.05061 0.0515428 0.0524826 0.0534318 0.0541647 0.0549029 0.0556434
0.0563857 0.0575263 0.0576784 0.0578306 0.0579829 0.0581353 0.0582878 0.0592717 0.0602551 0.0612389
0.0622225 0.0632048 0.0652051 0.0671922 0.0691686 0.0711546 0.0731382 0.0750968 0.0770817 0.0790813
0.0810849 0.0830903 0.0871025 0.0911319 0.0951296 0.0990822 0.103029 0.10591 0.108796 0.11169
0.114577 0.117979 0.122917 0.127828 0.132712 0.137569 0.1424 0.150109 0.157822 0.165532
0.173239 0.180944 0.188638 0.196339 0.204038 0.211735 0.219432 0.227118 0.234811 0.242504
0.250195 0.257885 0.265567 0.273255 0.280941 0.288627 0.296312 0.303991 0.311673 0.319355
0.327036 0.334717 0.342392 0.350071 0.357748 0.365425 0.373101 0.380773 0.388448 0.396121
0.403794 0.411466 0.419136 0.426806 0.434476 0.442145 0.449814 0.45748 0.465147 0.472813
0.480479 0.488144 0.495807 0.503471 0.511134 0.518796 0.526458 0.534118 0.541778 0.549438
0.557097 0.564756 0 0.00127409 0.0025488 0.00382396 0.00510034 0.00637795 0.00827385 0.0101719
0.0120722 0.0139755 0.015883 0.0177923 0.0197068 0.0216262 0.0235503 0.0254824 0.0264533 0.0274211
0.0283841 0.0293421 0.0299611 0.0309791 0.0319896 0.0329896 0.0339793 0.0349574 0.0358664 0.036772
0.0376736 0.0385721 0.0394617 0.0403524 0.0412415 0.0421295 0.0430166 0.0439029 0.0456801 0.0474746
0.0492836 0.0511023 0.0529375 0.0538055 0.0546749 0.0555463 0.0564199 0.0577775 0.0586619 0.059548
0.0604359 0.0613256 0.0622167 0.0640923 0.0659709 0.0678521 0.069736 0.0716219 0.0735174 0.0754051
0.0772938 0.0791839 0.081075 0.084871 0.0886661 0.0924658 0.0962699 0.100088 0.107787 0.115489
0.123145 0.130764 0.138399 0.146048 0.153694 0.161339 0.168982 0.176623 0.184269 0.191912
0.199553 0.207192 0.21483 0.222471 0.230109 0.237747 0.245383 0.253018 0.260656 0.268291
0.275926 0.283559 0.291192 0.298828 0.306461 0.314093 0.321725 0.329355 0.336989 0.34462
0.35225 0.359879 0.367507 0.375138 0.382767 0.390395 0.398022 0.405649 0.413278 0.420905
0.428531 0.436156 0.44378 0.451407 0.459032 0.466656 0.474279 0.481902 0.489527 0.49715
0.504772 0.512393 0.520014 0.527636 0.535257 0.542877 0.550497 0.558116 0 0.00127141
0.00254321 0.00381554 0.00508845 0.00636198 0.0101414 0.0139323 0.0177224 0.0215091 0.0252997 0.0257905
0.0262802 0.0267689 0.0272567 0.0276861 0.0290757 0.0304601 0.0318394 0.0332135 0.0345851 0.0364262
0.0382579 0.0400727 0.0418833 0.043689 0.0455002 0.0473088 0.0491188 0.0509375 0.0527675 0.0546037
0.0564414 0.0582818 0.0601252 0.0619711 0.0656733 0.0693893 0.0731213 0.0768683 0.080619 0.0843894
0.088158 0.0919268 0.0956976 0.0994708 0.107 0.114529 0.122062 0.12961 0.137173 0.144752