# vtk DataFile Version 2.0
tracks
ASCII
DATASET POLYDATA
POINTS 2600 float
-1.001 -0.05 0.0011 -0.900789 -0.0500202 0.00109734 -0.800577 -0.0500403 0.00109468 -0.700366 -0.0500603
0.00109203 -0.600155 -0.0500803 0.00108938 -0.499943 -0.0501003 0.00108675 -0.424945 -0.0501033 0.00107929
-0.349947 -0.0501409 0.00106936 -0.274949 -0.0501782 0.00105952 -0.19995 -0.0502152 0.00104977 -0.124952
-0.0502518 0.00104011 -0.0499538 -0.0502598 0.00104047 0.0250446 -0.0502648 0.00104906 0.100043 -0.0502699
0.00105771 0.175041 -0.0502751 0.00106644 0.25004 -0.0502802 0.00107524 0.400037 -0.0502713 0.00109077
0.550035 -0.0502642 0.00110465 0.700032 -0.0502569 0.00111871 0.85003 -0.0502496 0.00113295 1.00003
-0.0502422 0.00114737 1.15003 -0.050251 0.0011548 1.30002 -0.0502521 0.00115893 1.45002 -0.0502531
0.00116308 1.60002 -0.0502542 0.00116724 1.75002 -0.0502553 0.00117142 1.90002 -0.0502623 0.00117444
2.05002 -0.0502645 0.001176 2.20001 -0.0502668 0.00117756 2.35001 -0.050269 0.00117912 2.50001
-0.0502712 0.00118069 2.65001 -0.0502777 0.00118188 2.80001 -0.0502815 0.00118212 2.95001 -0.0502852
0.00118236 3.10001 -0.050289 0.0011826 3.25001 -0.0502928 0.00118285 3.40001 -0.0502992 0.00118324
3.55001 -0.0503037 0.00118343 3.70001 -0.0503081 0.00118362 3.85001 -0.0503126 0.00118381 4.00001
-0.0503171 0.00118401 4.15 -0.0503235 0.0011842 4.3 -0.0503288 0.00118457 4.45 -0.0503341
0.00118493 4.6 -0.0503394 0.0011853 4.75 -0.0503447 0.00118566 4.9 -0.050351 0.0011858
5.05 -0.0503569 0.00118636 5.2 -0.0503628 0.00118693 5.35 -0.0503687 0.00118749 5.5
-0.0503746 0.00118806 5.65 -0.0503808 0.00118815 5.8 -0.0503872 0.0011889 5.95 -0.0503935
0.00118964 6.1 -0.0503998 0.00119038 6.25 -0.0504061 0.00119113 6.4 -0.0504123 0.00119119
6.55 -0.0504189 0.00119206 6.7 -0.0504255 0.00119294 6.85 -0.0504321 0.00119382 7
-0.0504387 0.00119471 7.15 -0.0504449 0.00119473 7.3 -0.0504517 0.00119568 7.45 -0.0504585
0.00119663 7.6 -0.0504653 0.00119759 7.75 -0.0504721 0.00119855 7.9 -0.0504783 0.00119853
8.05 -0.0504852 0.00119954 8.2 -0.0504921 0.00120056 8.35 -0.050499 0.00120157 8.5
-0.050506 0.00120259 8.65 -0.0505122 0.00120255 8.8 -0.0505192 0.00120362 8.95 -0.0505262
0.0012047 9.1 -0.0505333 0.00120577 9.25 -0.0505403 0.00120685 9.4 -0.0505464 0.00120679
9.55 -0.0505915 0.00120829 9.7 -0.0506789 0.00121021 9.85 -0.0508085 0.00121254 10
-0.0509804 0.00121528 -1.001 -0.05 0.0537316 -0.900807 -0.0500908 0.0535775 -0.800614 -0.0501802
0.0533966 -0.700421 -0.050289 0.0531835 -0.600229 -0.0504239 0.0529367 -0.500035 -0.0505848 0.0526564
-0.425004 -0.0508022 0.0524395 -0.349973 -0.0511038 0.0521572 -0.274943 -0.0514487 0.0518971 -0.199912
-0.0518239 0.0516789 -0.124879 -0.0521829 0.0515414 -0.0498862 -0.0524083 0.0515822 0.0251066 -0.0525825
0.0517432 0.100099 -0.0527499 0.0519701 0.175092 -0.0529257 0.0522445 0.250087 -0.0530985 0.0525538
0.400077 -0.0533998 0.0531772 0.550067 -0.0536951 0.0536917 0.700057 -0.0539532 0.054159 0.850047
-0.0541743 0.0545789 1.00003 -0.054364 0.0549509 1.14797 -0.0546654 0.0552364 1.2959 -0.0549337
0.0555043 1.44383 -0.0552009 0.0557379 1.59177 -0.0554672 0.0559372 1.71022 -0.0556799 0.0560693
1.71818 -0.0556949 0.056077 1.72614 -0.05571 0.0560846 1.7341 -0.0557252 0.0560922 1.74206
-0.0557405 0.0560997 1.75002 -0.0557559 0.0561071 1.90002 -0.0560473 0.0562463 2.05002 -0.0563334
0.0563677 2.20001 -0.0566153 0.0564713 2.35001 -0.0568932 0.0565569 2.50001 -0.0571669 0.0566246
2.65001 -0.0574515 0.0566819 2.80001 -0.0577293 0.0567308 2.95001 -0.058006 0.0567716 3.10001
-0.0582818 0.0568043 3.25001 -0.0585566 0.0568289 3.40001 -0.0588396 0.0568497 3.55001 -0.0591167
0.0568686 3.70001 -0.0593929 0.0568855 3.85001 -0.0596679 0.0569004 4.00001 -0.059942 0.0569134
4.15 -0.0602219 0.0569255 4.3 -0.0604984 0.0569375 4.45 -0.0607743 0.0569489 4.6
-0.0610495 0.0569597 4.75 -0.061324 0.0569699 4.9 -0.0616018 0.0569792 5.05 -0.0618781
0.0569893 5.2 -0.0621537 0.056999 5.35 -0.0624288 0.0570084 5.5 -0.0627032 0.0570174
5.65 -0.0629789 0.057025 5.8 -0.0632541 0.0570339 5.95 -0.0635287 0.0570425 6.1
-0.0638027 0.0570507 6.25 -0.0640761 0.0570586 6.4 -0.0643493 0.0570645 6.55 -0.0646227
0.0570722 6.7 -0.0648955 0.0570795 6.85 -0.0651677 0.0570864 7 -0.0654393 0.057093
7.15 -0.0657097 0.0570971 7.3 -0.0659809 0.0571033 7.45 -0.0662515 0.0571091 7.6
-0.0665215 0.0571146 7.75 -0.0667908 0.0571198 7.9 -0.0670583 0.0571223 8.05 -0.067327
0.0571272 8.2 -0.067595 0.0571318 8.35 -0.0678624 0.0571363 8.5 -0.0681291 0.0571406
8.65 -0.0683936 0.0571422 8.8 -0.0686595 0.0571463 8.95 -0.0689245 0.0571502 9.1
-0.0691887 0.057154 9.25 -0.069452 0.0571575 9.4 -0.0697126 0.0571582 9.55 -0.0699751
0.0571617 9.7 -0.070237 0.0571651 9.85 -0.0704984 0.0571684 10 -0.0707593 0.0571715
-1.001 -0.05 0.106363 -0.900818 -0.0500629 0.106141 -0.800636 -0.050122 0.105871 -0.700455
-0.0502035 0.105557 -0.600274 -0.0503493 0.105022 -0.50009 -0.0505589 0.104269 -0.424996 -0.0508137
0.103691 -0.349901 -0.0511254 0.103096 -0.274807 -0.0514389 0.102576 -0.199711 -0.0516974 0.102161
-0.124607 -0.0519956 0.102067 -0.0496045 -0.0522014 0.102187 0.025398 -0.0523484 0.102416 0.1004
-0.0524827 0.102723 0.175402 -0.052636 0.10311 0.250412 -0.0528081 0.103578 0.400347 -0.0531248
0.104551 0.550283 -0.053435 0.10541 0.70022 -0.0537106 0.106182 0.850157 -0.0539609 0.106788
1.00009 -0.0541856 0.107229 1.15007 -0.0545565 0.107479 1.30006 -0.0547786 0.107771 1.45005
-0.0549577 0.10805 1.60003 -0.0551316 0.108295 1.75002 -0.0553001 0.108508 1.90002 -0.0555611
0.108659 2.05002 -0.0557402 0.108815 2.20001 -0.0559135 0.108956 2.35001 -0.0560846 0.109079
2.50001 -0.0562536 0.109185 2.65001 -0.0564973 0.10926 2.80001 -0.0566803 0.10933 2.95001
-0.0568619 0.109392 3.10001 -0.0570427 0.109446 3.25001 -0.0572228 0.109493 3.40001 -0.0574639
0.109533 3.55001 -0.0576501 0.109569 3.70001 -0.0578348 0.109604 3.85001 -0.0580183 0.109638
4 -0.0582008 0.109669 4.15 -0.0584378 0.109701 4.3 -0.0586261 0.109729 4.45
-0.0588133 0.109756 4.6 -0.0589997 0.109783 4.75 -0.0591853 0.109808 4.9 -0.0594193
0.109839 5.05 -0.0596092 0.109862 5.2 -0.059798 0.109885 5.35 -0.0599862 0.109908
5.5 -0.0601736 0.10993 5.65 -0.0604043 0.109959 5.8 -0.0605945 0.109979 5.95
-0.0607836 0.109998 6.1 -0.0609721 0.110017 6.25 -0.0611598 0.110036 6.4 -0.0613869
0.110062 6.55 -0.0615765 0.110078 6.7 -0.0617652 0.110093 6.85 -0.0619532 0.110108
7 -0.0621406 0.110122 7.15 -0.0623638 0.110147 7.3 -0.0625525 0.110158 7.45
-0.0627402 0.110169 7.6 -0.0629273 0.11018 7.75 -0.0631136 0.11019 7.9 -0.0633329
0.110213 8.05 -0.0635203 0.110221 8.2 -0.0637066 0.110228 8.35 -0.0638923 0.110236
8.5 -0.0640773 0.110243 8.65 -0.0642927 0.110264 8.8 -0.0644782 0.110269 8.95
-0.0646625 0.110274 9.1 -0.0648459 0.110279 9.25 -0.0650285 0.110283 9.4 -0.0652392
0.110303 9.55 -0.0654224 0.110306 9.7 -0.0656049 0.110308 9.85 -0.0657868 0.11031
10 -0.0659682 0.110311 -1.001 -0.05 0.158995 -0.900796 -0.0500737 0.158772 -0.800593
-0.0501602 0.158429 -0.700392 -0.0502994 0.157699 -0.600196 -0.0505035 0.156496 -0.499991 -0.0507636
0.15467 -0.42472 -0.0513363 0.153078 -0.349436 -0.051759 0.15217 -0.274149 -0.052107 0.151626
-0.19886 -0.0524495 0.151353 -0.1237 -0.0527162 0.15143 -0.0487788 -0.0527975 0.151615 0.0261411
-0.0528247 0.152088 0.101059 -0.0529072 0.152762 0.175977 -0.0530153 0.153524 0.25095 -0.0531122
0.154318 0.400788 -0.0532197 0.155705 0.550628 -0.0536132 0.156858 0.700471 -0.0539842 0.157585
0.850314 -0.0542976 0.158153 1.00014 -0.0545854 0.158554 1.15012 -0.0550197 0.158766 1.30009
-0.0553048 0.159019 1.45007 -0.0555112 0.159278 1.60005 -0.055653 0.159535 1.75002 -0.0557896
0.159758 1.90002 -0.0560197 0.159921 2.05002 -0.0561673 0.160088 2.20002 -0.0563021 0.160242
2.35001 -0.056428 0.160381 2.50001 -0.0565518 0.160502 2.65001 -0.0567509 0.160593 2.80001
-0.056889 0.160679 2.95001 -0.0570243 0.160758 3.10001 -0.0571577 0.16083 3.25001 -0.0572904
0.160894 3.40001 -0.0574844 0.160952 3.55001 -0.0576234 0.161007 3.70001 -0.0577599 0.16106
3.85001 -0.0578946 0.161113 4 -0.0580281 0.161163 4.15 -0.0582163 0.161215 4.3
-0.0583558 0.161262 4.45 -0.0584935 0.161309 4.6 -0.0586297 0.161356 4.75 -0.0587651
0.161402 4.9 -0.0589488 0.161452 5.05 -0.0590885 0.161496 5.2 -0.0592266 0.161539
5.35 -0.0593633 0.161583 5.5 -0.0594993 0.161625 5.65 -0.0596783 0.161675 5.8
-0.0598172 0.161715 5.95 -0.0599543 0.161754 6.1 -0.0600902 0.161794 6.25 -0.0602254
0.161833 6.4 -0.0603995 0.16188 6.55 -0.0605367 0.161916 6.7 -0.0606723 0.161951
6.85 -0.0608067 0.161986 7 -0.0609404 0.162021 7.15 -0.0611094 0.162066 7.3
-0.0612445 0.162098 7.45 -0.0613781 0.162129 7.6 -0.0615106 0.162159 7.75 -0.0616424
0.16219 7.9 -0.0618064 0.162232 8.05 -0.0619392 0.16226 8.2 -0.0620706 0.162288
8.35 -0.0622009 0.162315 8.5 -0.0623305 0.162342 8.65 -0.0624897 0.162383 8.8
-0.0626197 0.162408 8.95 -0.0627482 0.162433 9.1 -0.0628754 0.162457 9.25 -0.0630017
0.162481 9.4 -0.0631553 0.162521 9.55 -0.0632822 0.162543 9.7 -0.0634082 0.162565
9.85 -0.0635335 0.162586 10 -0.0636582 0.162607 -1.001 -0.05 0.211626 -0.947648
-0.0500721 0.21147 -0.894296 -0.0501479 0.21128 -0.840944 -0.0502274 0.211057 -0.787593 -0.0503498
0.210768 -0.724474 -0.0505766 0.210292 -0.679565 -0.0508395 0.209645 -0.63466 -0.0511577 0.208771
-0.589758 -0.0514784 0.207762 -0.544859 -0.0518029 0.206616 -0.499928 -0.0521325 0.205331 -0.469016
-0.0524151 0.20427 -0.438105 -0.0527066 0.203147 -0.40719 -0.0529808 0.202155 -0.376271 -0.0532387
0.201288 -0.326492 -0.0536366 0.200029 -0.286155 -0.0539408 0.19916 -0.245814 -0.0542438 0.198516
-0.205469 -0.0545494 0.19817 -0.165122 -0.0548175 0.198097 -0.124889 -0.0550127 0.198275 -0.0496163
-0.0552544 0.198992 0.0256541 -0.0553279 0.199929 0.10092 -0.0553756 0.201178 0.176184 -0.0554548
0.202498 0.251485 -0.0555267 0.20362 0.251492 -0.0555267 0.20362 0.251499 -0.0555267 0.20362
0.251506 -0.0555267 0.20362 0.251512 -0.0555267 0.20362 0.251519 -0.0555268 0.20362 0.32627
-0.0555764 0.204578 0.401022 -0.0556294 0.205409 0.475776 -0.055686 0.206112 0.55053 -0.0557715
[...]
POINT_DATA 2600
FIELD attributes 4
age 1 2600 float
0 0.00501117 0.0100223 0.0150335 0.0200447 0.0250559 0.0288054 0.0325531 0.0363008 0.0400485 0.0437963
0.0475447 0.0512903 0.055036 0.0587816 0.0625271 0.0700238 0.0775228 0.0850218 0.0925207 0.10002
0.107519 0.115019 0.122519 0.130019 0.137519 0.145019 0.152519 0.160018 0.167518 0.175018
0.182518 0.190018 0.197517 0.205017 0.212517 0.220016 0.227516 0.235016 0.242515 0.250015
0.257515 0.265015 0.272515 0.280014 0.287514 0.295014 0.302514 0.310013 0.317513 0.325013
0.332513 0.340012 0.347512 0.355012 0.362512 0.370012 0.377511 0.385011 0.392511 0.40001
0.40751 0.41501 0.42251 0.43001 0.437509 0.445009 0.452509 0.460009 0.467508 0.475008
0.482508 0.490008 0.497508 0.505007 0.512507 0.520007 0.527506 0.535004 0.542502 0.549998
0 0.00502538 0.0100519 0.0150725 0.020085 0.0250894 0.0288281 0.032561 0.0362872 0.0400067
0.04372 0.0474261 0.0511253 0.0548228 0.0585202 0.0622194 0.0696301 0.0770657 0.0845159 0.0919809
0.0994605 0.106851 0.114242 0.121634 0.129028 0.134949 0.135347 0.135745 0.136143 0.136541
0.136939 0.144439 0.151938 0.159437 0.166935 0.174432 0.181929 0.189426 0.196922 0.204419
0.211915 0.219411 0.226907 0.234403 0.241899 0.249395 0.256892 0.264389 0.271886 0.279382
0.286879 0.294377 0.301874 0.309371 0.316868 0.324365 0.331863 0.33936 0.346858 0.354355
0.361853 0.369351 0.376849 0.384346 0.391844 0.399342 0.406841 0.414339 0.421837 0.429336
0.436834 0.444333 0.451832 0.45933 0.466829 0.474328 0.481827 0.489326 0.496826 0.504325
0.511824 0.519324 0.526824 0.534323 0.541822 0.549322 0 0.00502734 0.0100564 0.0150796
0.0200963 0.0251066 0.0288531 0.0325926 0.0363229 0.0400483 0.0437642 0.0474686 0.0511675 0.0548652
0.0585621 0.0622587 0.069657 0.0770818 0.0845245 0.0919887 0.0994743 0.106975 0.114478 0.121984
0.129491 0.136999 0.144511 0.152018 0.159525 0.167032 0.174537 0.182047 0.189552 0.197056
0.20456 0.212063 0.219572 0.227076 0.234579 0.242083 0.249587 0.257096 0.2646 0.272104
0.279609 0.287113 0.294623 0.302127 0.309632 0.317136 0.324641 0.332152 0.339656 0.347161
0.354666 0.362171 0.369682 0.377187 0.384692 0.392197 0.399702 0.407213 0.414719 0.422224
0.429729 0.437235 0.444747 0.452252 0.459758 0.467264 0.47477 0.482282 0.489788 0.497294
0.5048 0.512307 0.519819 0.527326 0.534832 0.542339 0.549845 0 0.00502946 0.0100648
0.0150972 0.0201236 0.0251449 0.0289099 0.0326634 0.0364049 0.0401361 0.0438504 0.0475448 0.0512341
0.0549227 0.0586107 0.0623018 0.0696883 0.0771109 0.0845629 0.0920308 0.0995194 0.107028 0.114539
0.122054 0.129573 0.137093 0.144618 0.152138 0.159658 0.167177 0.174696 0.18222 0.189737
0.197255 0.204772 0.212289 0.219811 0.227328 0.234845 0.242362 0.24988 0.257402 0.26492
0.272437 0.279955 0.287472 0.294996 0.302514 0.310032 0.317549 0.325067 0.332591 0.340109
0.347628 0.355146 0.362664 0.370188 0.377707 0.385225 0.392744 0.400262 0.407787 0.415306
0.422824 0.430343 0.437862 0.445387 0.452906 0.460426 0.467945 0.475464 0.48299 0.490509
0.498029 0.505548 0.513068 0.520594 0.528114 0.535634 0.543154 0.550674 0 0.00268159
0.00536483 0.00804971 0.010734 0.0139075 0.016164 0.01842 0.0206752 0.0229296 0.0251848 0.0267339
0.028281 0.029825 0.0313661 0.0338412 0.0358391 0.0378316 0.0398189 0.0418009 0.0437719 0.0474505
0.0511306 0.0548121 0.0585001 0.0622007 0.062201 0.0622013 0.0622017 0.062202 0.0622023 0.0658841
0.0695758 0.0732774 0.0769892 0.0807109 0.0812876 0.0818642 0.0824409 0.0830177 0.0835799 0.0867514
0.0899252 0.0931015 0.0962801 0.0994608 0.106977 0.114495 0.122018 0.129545 0.137076 0.144614
0.152146 0.159677 0.167209 0.174741 0.182277 0.189808 0.197338 0.204868 0.212398 0.219933
0.227463 0.234993 0.242523 0.250052 0.257588 0.265118 0.272649 0.280179 0.287709 0.295246
0.302776 0.310307 0.317838 0.325369 0.332905 0.340436 0.347967 0.355498 0.363029 0.370566
0.378098 0.385629 0.39316 0.400692 0.408229 0.415761 0.423293 0.430824 0.438356 0.445894
0.453426 0.460958 0.46849 0.476023 0.483561 0.491093 0.498626 0.506158 0.513691 0.52123
0.528762 0.536295 0.543828 0.551361 0 0.00126428 0.00252894 0.00379427 0.00506039 0.00632732
0.0101142 0.0139095 0.0177163 0.0215293 0.0253246 0.0269229 0.0285108 0.0300917 0.0316653 0.0331049
0.0334087 0.0337121 0.0340152 0.0343182 0.0346211 0.0364483 0.0382685 0.0400798 0.0418859 0.0436827
0.0454823 0.0472869 0.0491036 0.0509254 0.0527514 0.0528123 0.0528732 0.0529341 0.052995 0.0530571
0.0548263 0.0565987 0.0583741 0.0601527 0.0619343 0.0656297 0.0693415 0.0730708 0.0768111 0.0805592
0.0843201 0.0880809 0.0918429 0.0956071 0.0993734 0.106905 0.114439 0.121976 0.129517 0.137061
0.14462 0.152167 0.159714 0.16726 0.174806 0.18236 0.189905 0.19745 0.204995 0.21254
0.220091 0.227636 0.23518 0.242725 0.250269 0.257821 0.265366 0.27291 0.280455 0.288
0.295553 0.303098 0.310643 0.318188 0.325734 0.333286 0.340832 0.348377 0.355923 0.363468
0.371021 0.378567 0.386113 0.393658 0.401204 0.408758 0.416304 0.42385 0.431396 0.438942
0.446496 0.454042 0.461588 0.469135 0.476681 0.484235 0.491782 0.499328 0.506875 0.514422
0.521976 0.529523 0.53707 0.544617 0.552163 0 0.00126528 0.00253107 0.00379736 0.00506416
0.00633149 0.00822553 0.0101219 0.0120208 0.0139224 0.0158261 0.0177432 0.0196652 0.0215881 0.0235142
0.0254523 0.026423 0.0273909 0.0283544 0.0293135 0.0302723 0.0307495 0.031225 0.0316984 0.0321697
0.0326908 0.0331428 0.0335929 0.0340409 0.034487 0.0349305 0.0358401 0.0367464 0.0376486 0.0385466
0.0394357 0.0403243 0.0412113 0.0420978 0.042984 0.043871 0.0451199 0.0463744 0.0476348 0.0489007
0.0490543 0.0498154 0.0505781 0.0513423 0.0521082 0.0528749 0.0547028 0.0565438 0.0583963 0.0602554
0.0621156 0.0639856 0.065857 0.0677306 0.0696069 0.071487 0.0733743 0.0752562 0.077135 0.0790156
0.0809007 0.0837507 0.0866045 0.0894584 0.0923126 0.0948316 0.0958382 0.0968449 0.0978518 0.0988589
0.0998661 0.107443 0.115021 0.122606 0.130198 0.137797 0.145422 0.153023 0.160619 0.168215
0.17581 0.183424 0.191016 0.198608 0.206199 0.21379 0.221399 0.22899 0.236579 0.244169
0.251759 0.259366 0.266956 0.274545 0.282135 0.289724 0.297331 0.30492 0.312509 0.320098
0.327688 0.335293 0.342882 0.350471 0.35806 0.365649 0.373253 0.380842 0.38843 0.396018
0.403607 0.41121 0.418799 0.426387 0.433975 0.441564 0.449166 0.456754 0.464342 0.47193
0.479518 0.487119 0.494708 0.502295 0.509883 0.517471 0.52507 0.532658 0.540246 0.547833
0.555421 0 0.00126264 0.00252594 0.00379027 0.00505576 0.00632242 0.00823212 0.0101438 0.0120592
0.013978 0.0159021 0.017819 0.0197488 0.0216913 0.0236465 0.0256239 0.0266234 0.0276236 0.028624
0.0296235 0.0306348 0.0308759 0.0311169 0.0313577 0.0315965 0.031783 0.0325382 0.0332808 0.0340104
0.0347261 0.0354332 0.0358795 0.0363241 0.0367671 0.0372086 0.0376442 0.038081 0.0385148 0.0389461
0.0393766 0.0398053 0.0402368 0.0406684 0.0411001 0.0415324 0.0419676 0.042403 0.0428378 0.0432732
0.0437095 0.044148 0.0450251 0.0459118 0.0468091 0.0477173 0.0486411 0.0493862 0.0501306 0.0508774
0.0516273 0.0525422 0.0526988 0.0528555 0.0530122 0.053169 0.053326 0.0542779 0.0552286 0.0561814
0.0571375 0.0580958 0.0590621 0.0600281 0.0609953 0.0619654 0.0629373 0.0648999 0.0668575 0.0688101
0.0707663 0.072708 0.0746366 0.0765793 0.0785364 0.0804955 0.0824558 0.0863893 0.0903167 0.0942202
0.0981143 0.102008 0.109779 0.117525 0.125217 0.132871 0.140532 0.148223 0.155893 0.163558
0.171219 0.178878 0.186552 0.194209 0.201865 0.209518 0.217171 0.224839 0.232491 0.240143
0.247793 0.255443 0.263106 0.270756 0.278405 0.286053 0.293701 0.301361 0.309009 0.316656
0.324302 0.331948 0.339606 0.347252 0.354897 0.362541 0.370185 0.377839 0.385483 0.393127
0.400769 0.408412 0.416063 0.423706 0.431347 0.438988 0.446629 0.454278 0.461919 0.469559
0.477198 0.484838 0.492484 0.500123 0.507762 0.515399 0.523037 0.53068 0.538318 0.545954
0.553591 0.561227 0 0.00126429 0.00252921 0.00379478 0.00506099 0.00632844 0.00824522 0.0101644
0.0120869 0.0140156 0.0159565 0.0169264 0.0178991 0.0188751 0.0198541 0.0208364 0.0218239 0.0228195
0.023824 0.0248375 0.0258614 0.0263789 0.0268982 0.0274211 0.0279477 0.0284805 0.0287519 0.0290245
0.0292991 0.0295761 0.0296769 0.029991 0.0303067 0.0306237 0.0309405 0.0312661 0.0313805 0.0314948
0.0316094 0.0317241 0.031804 0.0318118 0.0318196 0.0318275 0.0318353 0.0318431 0.0320169 0.0321907
0.0323642 0.0325376 0.0327126 0.0328789 0.0330448 0.0332103 0.0333733 0.0334961 0.0336121 0.0337275
0.0338422 0.0339557 0.034071 0.0341967 0.0343205 0.0344424 0.0345629 0.0346588 0.0346888 0.0347187
0.0347485 0.0347782 0.0348076 0.034915 0.035022 0.0351284 0.0352341 0.0353387 0.035447 0.0355541
0.0356601 0.0357653 0.0359307 0.0360487 0.0361662 0.0362834 0.0364004 0.0365023 0.0366163 0.0367305
0.0368446 0.0369586 0.0372129 0.0372926 0.0373721 0.0374517 0.0375311 0.0376099 0.0378007 0.0379908
0.0381809 0.0383715 0.0386934 0.0389106 0.0391277 0.0393451 0.0395629 0.0397807 0.0400001 0.0402189
0.0404379 0.0406572 0.040877 0.0410963 0.0413152 0.0415347 0.041755 0.041977 0.0422001 0.0424219
0.0426444 0.0428676 0.0430919 0.0434344 0.0437788 0.0441286 0.0444842 0.0446688 0.0448175 0.0449665
0.0451158 0.0452655 0.0454162 0.0459016 0.0463814 0.0468619 0.0473382 0.0478338 0.0483493 0.0488549
0.0493646 0.0498787 0.0503994 0.0504962 0.0505932 0.0506904 0.0507881 0.0508835 0.0518729 0.0529041
0.0539672 0.0549911 0.0560231 0.057213 0.058382 0.0595557 0.0607352 0.0619148 0.0624269 0.0629379
0.0634488 0.06396 0.0645614 0.0652334 0.0658993 0.0665636 0.0672293 0.0678941 0.0679725 0.0680508
0.068129 0.0682071 0.0682845 0.0693879 0.0704838 0.0715778 0.0726694 0.073755 0.0748975 0.076061
0.0772277 0.0783959 0.0795655 0.0814498 0.0833347 0.0852259 0.0871042 0.0900764 0.0902373 0.0903981
0.0905586 0.090719 0.0908791 0.0952824 0.0996628 0.103989 0.108247 0.112389 0.120482 0.128522
0.136504 0.144426 0.15229 0.160045 0.167801 0.175555 0.183306 0.191054 0.198797 0.206541
0.214283 0.222023 0.229761 0.237496 0.245231 0.252965 0.260697 0.268428 0.276156 0.283885
0.291612 0.299338 0.307063 0.312195 0.317327 0.322459 0.32759 0.332778 0.335357 0.337936
0.340514 0.343093 0.345672 0.35339 0.361111 0.368831 0.376552 0.384273 0.391984 0.399705
0.407425 0.415146 0.422867 0.430573 0.438293 0.446014 0.453734 0.461455 0.469155 0.476876
0.484596 0.492316 0.500037 0.507733 0.515453 0.523173 0.530893 0.538613 0.546303 0.554021
0.56174 0.569459 0.577179 0 0.00125402 0.00250896 0.00376521 0.0050229 0.00628215 0.00821323
0.010147 0.0120836 0.0140271 0.015985 0.0169576 0.017934 0.0189144 0.0198989 0.0208875 0.0218819
0.0228869 0.0239035 0.024932 0.0259733 0.0265019 0.0270336 0.0275722 0.0281175 0.0286716 0.0292372
0.0298105 0.0303962 0.0309959 0.0316236 0.0319429 0.0322623 0.0325825 0.0329038 0.03324 0.0332555
0.033271 0.0332865 0.0333021 0.0333169 0.0334654 0.0336138 0.0337613 0.0339051 0.0339917 0.0341545
0.0343143 0.0344711 0.0346247 0.0347829 0.0349328 0.0350796 0.0352236 0.035364 0.0354878 0.0356017
0.0357151 0.035828 0.0359394 0.0360455 0.036168 0.0362874 0.0364037 0.0365195 0.0366732 0.0367746
0.0368759 0.0369769 0.0370778 0.037171 0.037275 0.0373791 0.0374842 0.0375901 0.0377407 0.0380966
0.0384582 0.0388283 0.0391955 0.0395431 0.0400074 0.0404635 0.0409162 0.0413658 0.0418117 0.0422811
0.0427263 0.0431737 0.0436248 0.0440851 0.0445721 0.0450536 0.0455308 0.0460152 0.046506 0.0472696
0.0480401 0.0488198 0.049612 0.0496808 0.0501096 0.0505383 0.050967 0.0513936 0.051821 0.052941
0.0540519 0.0551866 0.0563465 0.0575476 0.0587998 0.0600284 0.0612338 0.0624384 0.0636649 0.0647477
0.0658102 0.0668649 0.0679134 0.0697401 0.0697561 0.069772 0.0697879 0.0698038 0.0698198 0.0704195
0.0710223 0.0716219 0.0722213 0.0729177 0.0735245 0.0741313 0.074738 0.0753445 0.0759474 0.077172
0.0783999 0.0796354 0.0808726 0.0821096 0.0845697 0.0870367 0.089476 0.0918761 0.0942506 0.0990391
0.103786 0.108405 0.112898 0.117249 0.121461 0.125659 0.129842 0.134005 0.139227 0.143099
0.146931 0.150724 0.154478 0.158194 0.165953 0.173718 0.181481 0.189243 0.197004 0.204747
0.212506 0.220265 0.228024 0.235781 0.243513 0.25127 0.259027 0.266784 0.27454 0.282264
0.29002 0.297776 0.305532 0.313288 0.321006 0.328761 0.336516 0.344272 0.352028 0.359739
0.367493 0.375248 0.383003 0.390759 0.398464 0.406218 0.413972 0.421726 0.429481 0.43718
0.444934 0.452687 0.460441 0.468195 0.475889 0.483642 0.491394 0.499147 0.5069 0.51459
0.522342 0.530094 0.537846 0.545598 0.553283 0.561032 0.568781 0.576531 0.584281 0
0.00125893 0.00251854 0.00377882 0.00504051 0.00630385 0.00823239 0.0101639 0.0120983 0.0140401 0.0159961
0.0169689 0.0179458 0.0189269 0.0199121 0.0209017 0.0218961 0.0229012 0.023918 0.0249466 0.0259881
0.0265172 0.0270491 0.0275869 0.0281315 0.0286853 0.0292485 0.0298195 0.0304003 0.0309938 0.0316177
0.0316184 0.0316192 0.03162 0.0316208 0.0316215 0.0319376 0.0322545 0.0325717 0.0328889 0.0332185
0.0334671 0.0337144 0.0339596 0.0341981 0.0342934 0.0343903 0.0344863 0.0345814 0.0346755 0.0347722
0.0349784 0.0351774 0.0353695 0.0355554 0.0357177 0.0357917 0.0358655 0.035939 0.0360118 0.0360829
0.0361579 0.0362317 0.0363058 0.0363799 0.0364699 0.0365549 0.0366394 0.0367234 0.0368069 0.0369151
0.036981 0.0370469 0.0371127 0.0371785 0.0372413 0.0377008 0.0381694 0.0386523 0.0391447 0.039565
0.0400299 0.0404854 0.0409419 0.0414012 0.0418654 0.0423463 0.0428169 0.04329 0.0437656 0.0442429
0.0447411 0.0452283 0.0457184 0.0462143 0.0467183 0.0477601 0.0488176 0.0498878 0.0509652 0.0520654
0.0522506 0.0524354 0.0526205 0.0528059 0.0529921 0.053928 0.0548754 0.0558417 0.0568248 0.0578245
0.0590334 0.0602457 0.0614697 0.0627125 0.063947 0.0639674 0.0639877 0.0640081 0.0640284 0.0640488
0.0643577 0.0646662 0.0649748 0.065284 0.0655971 0.0658828 0.0661687 0.0664547 0.0667409 0.0670264
0.0676438 0.0682582 0.0688733 0.0694892 0.0701014 0.0713439 0.0725759 0.0738061 0.0750328 0.076251
0.0770275 0.0777937 0.0785628 0.0793349 0.0802468 0.0806834 0.0811189 0.0815534 0.0819877 0.0824218
0.0848845 0.0873335 0.0897684 0.0921652 0.0945401 0.0992893 0.103971 0.10855 0.11302 0.11736
0.125069 0.132662 0.140107 0.147411 0.158576 0.165721 0.172863 0.180002 0.187139 0.19425
0.194863 0.195476 0.196089 0.196702 0.197315 0.205055 0.212795 0.220535 0.228274 0.236013
0.243742 0.25148 0.259218 0.266955 0.274693 0.282414 0.290151 0.297889 0.305626 0.313364
0.321078 0.328815 0.336553 0.34429 0.352027 0.359736 0.367472 0.375209 0.382946 0.390683
0.398386 0.406122 0.413858 0.421595 0.429331 0.437029 0.444764 0.4525 0.460236 0.467973
0.475665 0.4834 0.491136 0.498871 0.506607 0.514295 0.522029 0.529764 0.537499 0.545234
0.552916 0.560649 0.568381 0.576115 0.583848 0 0.00127988 0.00256039 0.00384216 0.00512541
0.00641014 0.0083165 0.0102254 0.012137 0.0140552 0.0159855 0.0169576 0.0179327 0.0189113 0.0198933
0.0208789 0.0218732 0.0228766 0.0238899 0.0249133 0.0259488 0.026438 0.0269292 0.0274246 0.0279243
0.02803 0.0281448 0.0282596 0.0283745 0.0284894 0.0286045 0.0291485 0.0296968 0.0302527 0.0308174
0.0314031 0.0314207 0.0314384 0.031456 0.0314737 0.0314906 0.0315595 0.0316283 0.0316971 0.0317658
0.0318263 0.0320331 0.0322398 0.0324463 0.0326528 0.0328622 0.0329596 0.0330569 0.033154 0.0332508
0.0333321 0.0335275 0.0337222 0.0339158 0.0341065 0.0343029 0.0343688 0.0344343 0.0344994 0.034564
0.0346201 0.0346344 0.0346486 0.0346627 0.0346769 0.0346908 0.0348947 0.0350945 0.0352904 0.0354786
0.0356578 0.0356896 0.0357212 0.0357528 0.0357842 0.0358168 0.0359082 0.0359988 0.0360886 0.0361797
0.0363101 0.0364056 0.0365004 0.0365946 0.036688 0.0367788 0.0369011 0.0370223 0.0371428 0.0372636
0.0374523 0.0375293 0.0376061 0.0376833 0.037761 0.0378375 0.038051 0.0382626 0.0384748 0.0386863
0.0388996 0.039121 0.0393379 0.0395503 0.0397631 0.0399789 0.0401971 0.0404135 0.0406283 0.0408437
0.0410633 0.0412877 0.0415086 0.0417271 0.041946 0.0421664 0.0423881 0.042608 0.0428271 0.0430468
0.0432686 0.0437205 0.0441722 0.0446272 0.0450855 0.0455488 0.0460343 0.046499 0.0469645 0.047433
0.0479111 0.0484022 0.0488838 0.0493586 0.0498367 0.0503317 0.051367 0.0523972 0.0534402 0.0545064
0.0556074 0.0562606 0.0569173 0.0575782 0.0582436 0.0589733 0.0594598 0.0599487 0.0604401 0.060934
0.0614317 0.0626447 0.0638297 0.0650086 0.0661734 0.0673854 0.0686267 0.0698391 0.0710292 0.072202
0.0733721 0.0745223 0.0756637 0.0768082 0.0779556 0.0792539 0.081624 0.0839807 0.0863297 0.0886728
0.090972 0.0954863 0.100047 0.104528 0.108806 0.112988 0.121279 0.12953 0.137716 0.145741
0.153596 0.161335 0.169075 0.176812 0.184545 0.192276 0.2 0.207726 0.21545 0.223173
0.230894 0.23861 0.246327 0.254044 0.261759 0.269473 0.277184 0.284896 0.292607 0.300316
0.308025 0.315732 0.323439 0.331144 0.338849 0.346554 0.354256 0.361958 0.36966 0.37736
0.38506 0.386505 0.38795 0.389394 0.390839 0.392284 0.398537 0.404791 0.411044 0.417297
0.423551 0.431244 0.438942 0.446641 0.454339 0.462037 0.469726 0.477424 0.485122 0.492821
0.500519 0.508204 0.515902 0.5236 0.531298 0.538996 0.546675 0.554372 0.56207 0.569767
0.577465 0 0.00127751 0.00255574 0.00383508 0.00511572 0.00639764 0.00829924 0.0102028 0.0121092
0.0140206 0.0159401 0.0169044 0.0178706 0.0188388 0.0198093 0.020782 0.0217561 0.0227352 0.0237198
0.0247089 0.025702 0.0266935 0.0276915 0.0286986 0.0297015 0.0307125 0.0308007 0.0308889 0.0309771
0.031065 0.0311453 0.0320565 0.0329492 0.0338223 0.0346752 0.0355271 0.0359774 0.0364257 0.0368721
0.0373174 0.0377573 0.0381941 0.0386286 0.0390626 0.039496 0.0399472 0.0403835 0.04082 0.0412566
0.0416936 0.0421303 0.0425695 0.0430071 0.0434456 0.0438849 0.0443252 0.0452067 0.0460932 0.0469868
0.047887 0.048801 0.0497434 0.0506731 0.0515905 0.0525127 0.0534497 0.0548066 0.0561829 0.0575657
0.0589607 0.0615806 0.0619015 0.0622223 0.0625432 0.0628641 0.0631848 0.0651772 0.0671559 0.0691284
0.0711109 0.0730985 0.0750676 0.0770634 0.0790638 0.0810685 0.0830777 0.0871134 0.0911806 0.0952096
0.0991685 0.103127 0.107922 0.112735 0.117539 0.122318 0.128656 0.131477 0.134286 0.137084
0.139872 0.142648 0.150361 0.158075 0.165785 0.173493 0.181198 0.188894 0.196595 0.204295
0.211993 0.219689 0.227379 0.235073 0.242765 0.250457 0.258148 0.265833 0.273522 0.28121
0.288897 0.296583 0.304265 0.311949 0.319633 0.327316 0.334998 0.342676 0.350357 0.358036
0.365715 0.373394 0.381069 0.388745 0.396421 0.404097 0.411772 0.419444 0.427117 0.434789
0.442461 0.450133 0.457802 0.465472 0.473141 0.48081 0.488478 0.496145 0.503812 0.511478
0.519143 0.526808 0.534472 0.542135 0.549798 0.55746 0.565123 0 0.00127413 0.00254889
0.0038241 0.00510055 0.00637824 0.00827426 0.0101724 0.012073 0.0139765 0.0158843 0.017794 0.019709
0.0216291 0.0235543 0.0254876 0.0264594 0.0274281 0.0283921 0.0293511 0.0300448 0.0310494 0.0320463
0.0330333 0.0340106 0.0349771 0.0358884 0.0367968 0.0377011 0.0386026 0.0394949 0.0403882 0.0412801
0.0421708 0.0430604 0.0439478 0.0457271 0.0475216 0.0493283 0.0511437 0.0529746 0.0544519 0.0559325
0.05742 0.0589129 0.0615327 0.0616703 0.0618079 0.0619455 0.0620832 0.062221 0.0640923 0.0659669
0.0678449 0.0697261 0.07161 0.0735045 0.0753917 0.0772804 0.0791708 0.0810624 0.0848605 0.0886597
0.0924646 0.0962753 0.100098 0.107815 0.115536 0.123199 0.130823 0.13846 0.14611 0.153757
0.161403 0.169047 0.176689 0.184336 0.19198 0.199621 0.207261 0.2149 0.222542 0.230181
0.237819 0.245456 0.253091 0.260731 0.268367 0.276002 0.283636 0.29127 0.298907 0.30654
0.314173 0.321806 0.329437 0.337072 0.344703 0.352334 0.359964 0.367593 0.375225 0.382855
0.390484 0.398112 0.405739 0.413369 0.420997 0.428623 0.43625 0.443875 0.451503 0.459129
0.466754 0.474378 0.482002 0.489628 0.497252 0.504876 0.512498 0.52012 0.527744 0.535365
0.542987 0.550607 0.558228 0 0.00127148 0.00254335 0.00381576 0.00508877 0.00636239 0.0101421
0.0139337 0.0177249 0.0215133 0.0253063 0.025807 0.0263066 0.0268053 0.027303 0.0277305 0.0291145
0.0304933 0.0318673 0.0332362 0.034603 0.0364466 0.0382807 0.0400982 0.0419112 0.043719 0.0455319
0.0473413 0.0491507 0.0509676 0.0527945 0.054628 0.0564614 0.0582974 0.0601363 0.0619778 0.0656722
0.069382 0.0731069 0.0768503 0.0806 0.0843726 0.088142 0.0919112 0.0956834 0.0994591 0.106996