# vtk DataFile Version 2.0
tracks
ASCII
DATASET POLYDATA
POINTS 2565 float
-1.001 -0.05 0.0011 -0.900789 -0.0500174 0.00109719 -0.800577 -0.0500347 0.00109439 -0.700366 -0.0500519
0.00109159 -0.600155 -0.0500692 0.0010888 -0.499943 -0.0500863 0.00108602 -0.424945 -0.0500863 0.00107815
-0.349947 -0.050118 0.0010671 -0.274949 -0.0501493 0.00105617 -0.19995 -0.0501804 0.00104535 -0.124952
-0.0502111 0.00103465 -0.0499538 -0.0502121 0.001035 0.0250446 -0.0501987 0.00104357 0.100043 -0.0501852
0.00105221 0.175041 -0.0501715 0.00106092 0.25004 -0.0501578 0.0010697 0.400037 -0.050136 0.00108356
0.550035 -0.0501063 0.00109613 0.700032 -0.0500762 0.00110885 0.85003 -0.0500458 0.00112171 1.00003
-0.050015 0.00113473 1.15003 -0.0500137 0.00114216 1.30002 -0.0499958 0.00114712 1.45002 -0.0499779
0.0011521 1.60002 -0.0499599 0.00115711 1.75002 -0.0499418 0.00116214 1.90002 -0.0499402 0.00116541
2.05002 -0.0499257 0.00116845 2.20001 -0.0499112 0.00117149 2.35001 -0.0498966 0.00117454 2.50001
-0.049882 0.0011776 2.65001 -0.0498803 0.00117935 2.80001 -0.0498682 0.00118098 2.95001 -0.0498561
0.00118261 3.10001 -0.0498439 0.00118425 3.25001 -0.0498318 0.00118589 3.40001 -0.04983 0.00118699
3.55001 -0.0498193 0.0011879 3.70001 -0.0498085 0.00118881 3.85001 -0.0497978 0.00118973 4.00001
-0.0497871 0.00119064 4.15 -0.0497851 0.0011915 4.3 -0.049775 0.00119198 4.45 -0.0497649
0.00119246 4.6 -0.0497547 0.00119294 4.75 -0.0497445 0.00119342 4.9 -0.0497425 0.00119412
5.05 -0.0497326 0.00119424 5.2 -0.0497227 0.00119435 5.35 -0.0497127 0.00119447 5.5
-0.0497028 0.00119458 5.65 -0.0497007 0.00119511 5.8 -0.0496907 0.00119489 5.95 -0.0496807
0.00119467 6.1 -0.0496708 0.00119445 6.25 -0.0496608 0.00119423 6.4 -0.0496586 0.00119457
6.55 -0.0496485 0.00119405 6.7 -0.0496383 0.00119353 6.85 -0.0496282 0.00119301 7
-0.0496181 0.00119249 7.15 -0.0496158 0.00119264 7.3 -0.0496054 0.00119187 7.45 -0.0495951
0.0011911 7.6 -0.0495848 0.00119033 7.75 -0.0495745 0.00118957 7.9 -0.0495721 0.00118954
8.05 -0.0495615 0.00118858 8.2 -0.049551 0.00118762 8.35 -0.0495405 0.00118667 8.5
-0.04953 0.00118571 8.65 -0.0495275 0.00118555 8.8 -0.0495167 0.00118445 8.95 -0.049506
0.00118336 9.1 -0.0494953 0.00118226 9.25 -0.0494846 0.00118117 9.4 -0.0494819 0.00118088
9.55 -0.0494509 0.0011754 9.7 -0.0493976 0.00116515 9.85 -0.0493221 0.00115011 10
-0.0492244 0.0011303 -1.001 -0.05 0.0537316 -0.900807 -0.0500471 0.053579 -0.800614 -0.0500853
0.0533995 -0.700421 -0.0501298 0.0531847 -0.600228 -0.0501857 0.0529318 -0.500035 -0.0502527 0.0526412
-0.425004 -0.0503907 0.0524035 -0.349973 -0.0506057 0.0520836 -0.274942 -0.0508433 0.0517858 -0.199912
-0.0510878 0.0515324 -0.12488 -0.051291 0.0513633 -0.0498868 -0.0513205 0.0513874 0.0251059 -0.0512748
0.0515324 0.100099 -0.0512064 0.0517446 0.175091 -0.0511322 0.0520068 0.250087 -0.0510499 0.0523074
0.400076 -0.0508621 0.052921 0.550066 -0.0506642 0.0534468 0.700056 -0.0504597 0.0539199 0.850046
-0.0502484 0.0543399 1.00003 -0.0500305 0.0547064 1.14216 -0.049938 0.0549786 1.28428 -0.0498183
0.0552408 1.4264 -0.0497015 0.0554732 1.56852 -0.0495877 0.0556758 1.68702 -0.0494954 0.0558197
1.69962 -0.0494864 0.055833 1.71222 -0.0494776 0.0558462 1.72482 -0.0494689 0.0558592 1.73742
-0.0494603 0.0558721 1.75002 -0.0494519 0.0558848 1.90002 -0.0493603 0.0560346 2.05002 -0.0492573
0.0561707 2.20001 -0.0491496 0.0562924 2.35001 -0.0490368 0.0563998 2.50001 -0.0489191 0.0564927
2.65001 -0.0488329 0.056574 2.80001 -0.0487213 0.0566501 2.95001 -0.048608 0.0567196 3.10001
-0.0484931 0.0567827 3.25001 -0.0483764 0.0568392 3.40001 -0.0482874 0.0568905 3.55001 -0.0481751
0.0569394 3.70001 -0.0480621 0.0569859 3.85001 -0.0479482 0.0570299 4.00001 -0.0478337 0.0570715
4.15 -0.0477411 0.0571113 4.3 -0.0476279 0.0571491 4.45 -0.047514 0.0571853 4.6
-0.0473992 0.05722 4.75 -0.0472836 0.0572532 4.9 -0.0471865 0.0572857 5.05 -0.0470707
0.0573157 5.2 -0.046954 0.0573439 5.35 -0.0468366 0.0573705 5.5 -0.0467183 0.0573954
5.65 -0.0466164 0.05742 5.8 -0.0464968 0.0574414 5.95 -0.0463762 0.057461 6.1
-0.0462546 0.0574786 6.25 -0.0461321 0.0574944 6.4 -0.046025 0.05751 6.55 -0.0459006
0.0575222 6.7 -0.0457751 0.0575325 6.85 -0.0456486 0.0575409 7 -0.045521 0.0575473
7.15 -0.0454086 0.0575538 7.3 -0.0452788 0.057557 7.45 -0.0451479 0.0575585 7.6
-0.0450158 0.0575581 7.75 -0.0448825 0.057556 7.9 -0.0447645 0.0575542 8.05 -0.0446289
0.0575494 8.2 -0.0444921 0.0575431 8.35 -0.0443541 0.0575355 8.5 -0.0442148 0.0575264
8.65 -0.0440912 0.057518 8.8 -0.0439496 0.0575066 8.95 -0.0438066 0.057494 9.1
-0.0436624 0.0574801 9.25 -0.0435169 0.0574648 9.4 -0.0433878 0.0574505 9.55 -0.0432402
0.0574337 9.7 -0.0430917 0.057416 9.85 -0.0429423 0.0573975 10 -0.0427921 0.0573783
-1.001 -0.05 0.106363 -0.900818 -0.0500175 0.106143 -0.800636 -0.0500233 0.105877 -0.700455
-0.0500383 0.105562 -0.600274 -0.0500993 0.105017 -0.50009 -0.0502061 0.104245 -0.424996 -0.0503745
0.103639 -0.349904 -0.0505865 0.103002 -0.27481 -0.0507741 0.102433 -0.199716 -0.0508913 0.101969
-0.124615 -0.051005 0.101828 -0.0496107 -0.0509836 0.10191 0.0253936 -0.0508822 0.102103 0.100397
-0.0507607 0.102377 0.175401 -0.050648 0.102735 0.250414 -0.0505439 0.103178 0.400349 -0.05032
0.104106 0.550284 -0.050083 0.104945 0.70022 -0.0498373 0.105694 0.850156 -0.0495865 0.106274
1.00009 -0.0493307 0.106686 1.15007 -0.0492131 0.106899 1.30006 -0.0489925 0.107173 1.45005
-0.0487789 0.107441 1.60003 -0.0485615 0.107679 1.75002 -0.0483403 0.107886 1.90002 -0.0482556
0.108028 2.05002 -0.0480593 0.108184 2.20001 -0.0478635 0.108327 2.35001 -0.0476664 0.108456
2.50001 -0.0474679 0.108571 2.65001 -0.0473916 0.108654 2.80001 -0.0472114 0.108752 2.95001
-0.0470311 0.108844 3.10001 -0.0468498 0.10893 3.25001 -0.0466677 0.10901 3.40001 -0.0465925
0.109069 3.55001 -0.0464224 0.109145 3.70001 -0.0462523 0.10922 3.85 -0.0460816 0.109292
4 -0.0459103 0.109362 4.15 -0.0458346 0.109416 4.3 -0.0456709 0.109486 4.45
-0.0455069 0.109554 4.6 -0.0453423 0.109622 4.75 -0.0451771 0.109687 4.9 -0.045099
0.109739 5.05 -0.0449383 0.109802 5.2 -0.0447773 0.109865 5.35 -0.0446157 0.109925
5.5 -0.0444535 0.109984 5.65 -0.0443723 0.110031 5.8 -0.0442126 0.110085 5.95
-0.0440524 0.110138 6.1 -0.0438915 0.110189 6.25 -0.0437299 0.110238 6.4 -0.043645
0.110278 6.55 -0.0434846 0.110321 6.7 -0.0433238 0.110362 6.85 -0.0431622 0.110402
7 -0.0429998 0.110439 7.15 -0.0429108 0.11047 7.3 -0.0427489 0.110501 7.45
-0.0425865 0.110531 7.6 -0.0424231 0.110558 7.75 -0.0422589 0.110584 7.9 -0.0421656
0.110605 8.05 -0.0420014 0.110625 8.2 -0.0418367 0.110643 8.35 -0.041671 0.11066
8.5 -0.0415044 0.110675 8.65 -0.0414065 0.110689 8.8 -0.0412397 0.110699 8.95
-0.0410722 0.110707 9.1 -0.0409039 0.110713 9.25 -0.0407345 0.110719 9.4 -0.0406321
0.110725 9.55 -0.0404625 0.110725 9.7 -0.0402927 0.110725 9.85 -0.0401224 0.110723
10 -0.0399515 0.110721 -1.001 -0.05 0.158995 -0.900797 -0.0500291 0.158775 -0.800594
-0.0500582 0.158437 -0.700394 -0.05012 0.157705 -0.600198 -0.0502247 0.156493 -0.499991 -0.0503608
0.154651 -0.424718 -0.0508286 0.153016 -0.349433 -0.0511527 0.152073 -0.274144 -0.051376 0.151482
-0.198853 -0.0515569 0.151155 -0.123692 -0.0516153 0.151176 -0.0487706 -0.0514243 0.151296 0.0261497
-0.0511611 0.15169 0.101069 -0.0509447 0.15229 0.175987 -0.0507415 0.152979 0.25096 -0.0505265
0.153712 0.400797 -0.0500205 0.155004 0.550634 -0.0497342 0.156144 0.700475 -0.0494717 0.156849
0.850316 -0.0492031 0.157356 1.00014 -0.0489297 0.157694 1.15012 -0.0487922 0.157834 1.30009
-0.0485535 0.158034 1.45007 -0.0483329 0.158254 1.60005 -0.0481256 0.158483 1.75002 -0.0479143
0.158682 1.90002 -0.0478385 0.158815 2.05002 -0.047652 0.158962 2.20001 -0.04747 0.159101
2.35001 -0.0472903 0.159229 2.50001 -0.0471093 0.159342 2.65001 -0.0470497 0.159424 2.80001
-0.0468868 0.15952 2.95001 -0.0467255 0.159616 3.10001 -0.0465648 0.159708 3.25001 -0.0464032
0.159794 3.40001 -0.0463481 0.15986 3.55001 -0.0461984 0.159942 3.70001 -0.0460498 0.160027
3.85 -0.0459017 0.160112 4 -0.0457529 0.160196 4.15 -0.0456995 0.160263 4.3
-0.0455582 0.160345 4.45 -0.0454176 0.160431 4.6 -0.0452772 0.160516 4.75 -0.0451361
0.160601 4.9 -0.0450821 0.160671 5.05 -0.0449455 0.160753 5.2 -0.0448094 0.160836
5.35 -0.0446734 0.160919 5.5 -0.0445367 0.161 5.65 -0.0444814 0.161069 5.8
-0.0443471 0.161146 5.95 -0.0442132 0.161222 6.1 -0.0440792 0.161297 6.25 -0.0439444
0.16137 6.4 -0.0438869 0.161434 6.55 -0.0437533 0.161501 6.7 -0.04362 0.161567
6.85 -0.0434864 0.161632 7 -0.043352 0.161694 7.15 -0.0432918 0.161749 7.3
-0.043158 0.161805 7.45 -0.0430241 0.161859 7.6 -0.04289 0.161911 7.75 -0.0427549
0.161961 7.9 -0.0426917 0.162007 8.05 -0.0425567 0.162051 8.2 -0.0424216 0.162093
8.35 -0.0422862 0.162133 8.5 -0.0421499 0.162171 8.65 -0.0420834 0.162208 8.8
-0.0419467 0.162241 8.95 -0.0418101 0.162272 9.1 -0.0416732 0.1623 9.25 -0.0415352
0.162327 9.4 -0.0414656 0.162355 9.55 -0.0413274 0.162377 9.7 -0.0411893 0.162397
9.85 -0.0410512 0.162416 10 -0.0409125 0.162435 -1.001 -0.05 0.211626 -0.947707
-0.0500448 0.211472 -0.894415 -0.0500897 0.211284 -0.841123 -0.0501347 0.211064 -0.787831 -0.0502181
0.210775 -0.724673 -0.0503931 0.210293 -0.679724 -0.0506109 0.209634 -0.634779 -0.0508766 0.208743
-0.589838 -0.0511396 0.207715 -0.544899 -0.051401 0.206547 -0.499928 -0.0516621 0.205238 -0.470102
-0.0518841 0.204196 -0.440278 -0.052113 0.203091 -0.41045 -0.0523241 0.202108 -0.380618 -0.0525185
0.201243 -0.334343 -0.0527972 0.200029 -0.292433 -0.0530198 0.199075 -0.250519 -0.0532244 0.198321
-0.2086 -0.0534109 0.197891 -0.166679 -0.0535518 0.197757 -0.124876 -0.0536033 0.197885 -0.0496098
-0.0535491 0.198482 0.0256541 -0.0532953 0.199298 0.100914 -0.0529838 0.200431 0.176172 -0.0526885
0.201651 0.251467 -0.0523946 0.202695 0.265721 -0.0523318 0.202869 0.279974 -0.0522703 0.20304
0.294228 -0.0522089 0.203207 0.308481 -0.0521478 0.203368 0.32612 -0.0520725 0.203563 0.385953
-0.0518181 0.204198 0.445787 -0.0515697 0.204758 0.505621 -0.0513296 0.205242 0.565456 -0.0511166
[...]
POINT_DATA 2565
FIELD attributes 4
age 1 2565 float
0 0.00501122 0.0100224 0.0150337 0.0200449 0.0250561 0.0288057 0.0325534 0.0363013 0.0400491 0.0437969
0.0475453 0.051291 0.0550366 0.0587822 0.0625278 0.0700247 0.077524 0.0850233 0.0925225 0.100022
0.107522 0.115022 0.122522 0.130022 0.137522 0.145022 0.152522 0.160022 0.167522 0.175022
0.182522 0.190022 0.197522 0.205022 0.212522 0.220022 0.227522 0.235022 0.242521 0.250021
0.257521 0.265021 0.272521 0.280021 0.28752 0.29502 0.30252 0.31002 0.31752 0.32502
0.33252 0.34002 0.34752 0.355019 0.362519 0.370019 0.377519 0.385019 0.392519 0.400019
0.407519 0.415019 0.422519 0.430018 0.437518 0.445018 0.452518 0.460018 0.467518 0.475018
0.482518 0.490018 0.497518 0.505018 0.512517 0.520017 0.527517 0.535016 0.542514 0.550011
0 0.00502559 0.0100523 0.015073 0.0200856 0.02509 0.028829 0.0325624 0.0362891 0.040009
0.0437223 0.047428 0.0511269 0.0548242 0.0585216 0.0622208 0.0696316 0.0770681 0.08452 0.0919874
0.0994701 0.106572 0.113676 0.120781 0.127887 0.133813 0.134443 0.135073 0.135704 0.136334
0.136964 0.144467 0.15197 0.159472 0.166974 0.174476 0.181977 0.189478 0.196978 0.204478
0.211978 0.219477 0.226976 0.234475 0.241973 0.249472 0.25697 0.264469 0.271967 0.279466
0.286964 0.294463 0.301961 0.30946 0.316959 0.324457 0.331956 0.339455 0.346954 0.354453
0.361952 0.369451 0.376951 0.38445 0.391949 0.399448 0.406948 0.414447 0.421946 0.429446
0.436945 0.444445 0.451945 0.459444 0.466944 0.474444 0.481944 0.489443 0.496943 0.504443
0.511942 0.519442 0.526942 0.534441 0.54194 0.549439 0 0.00502751 0.0100567 0.01508
0.0200967 0.0251071 0.0288538 0.0325936 0.0363241 0.0400495 0.0437649 0.0474688 0.051167 0.0548642
0.0585606 0.0622566 0.0696542 0.0770786 0.0845216 0.0919867 0.0994736 0.106976 0.11448 0.121988
0.129497 0.137007 0.144522 0.152033 0.159543 0.167054 0.174564 0.182077 0.189586 0.197094
0.204602 0.212109 0.219621 0.227128 0.234635 0.242142 0.249648 0.257159 0.264666 0.272173
0.27968 0.287187 0.294697 0.302205 0.309712 0.317219 0.324727 0.332238 0.339746 0.347253
0.354761 0.362269 0.369781 0.377289 0.384797 0.392305 0.399814 0.407326 0.414834 0.422343
0.429852 0.43736 0.444873 0.452382 0.459891 0.4674 0.474909 0.482421 0.489931 0.49744
0.50495 0.512459 0.519971 0.527481 0.53499 0.542499 0.550008 0 0.00502966 0.0100653
0.0150979 0.0201243 0.025146 0.0289128 0.0326673 0.0364094 0.0401409 0.043855 0.0475482 0.0512364
0.0549238 0.0586105 0.0623002 0.0696829 0.0771021 0.0845505 0.0920174 0.0995054 0.107014 0.114524
0.12204 0.12956 0.137081 0.144607 0.15213 0.159652 0.167175 0.174698 0.182224 0.189745
0.197266 0.204786 0.212306 0.21983 0.22735 0.234869 0.242389 0.249908 0.257431 0.264951
0.27247 0.279989 0.287509 0.295032 0.302552 0.310072 0.317592 0.325112 0.332635 0.340156
0.347676 0.355196 0.362717 0.370241 0.377762 0.385282 0.392803 0.400324 0.407849 0.41537
0.422891 0.430413 0.437934 0.445459 0.45298 0.460502 0.468024 0.475546 0.483071 0.490593
0.498115 0.505638 0.51316 0.520685 0.528207 0.53573 0.543252 0.550774 0 0.00267891
0.00535949 0.00804174 0.0107235 0.0138999 0.0161594 0.0184186 0.0206772 0.0229348 0.0251934 0.0266892
0.0281832 0.0296743 0.0311627 0.0334661 0.0355447 0.0376171 0.0396836 0.0417441 0.0437928 0.0474719
0.051151 0.05483 0.0585148 0.0622118 0.062913 0.0636146 0.0643166 0.0650189 0.0658885 0.0688401
0.0717982 0.0747628 0.0777342 0.0807122 0.081123 0.0815337 0.0819445 0.0823553 0.0827583 0.086091
0.0894268 0.0927659 0.0961082 0.0994529 0.106967 0.114484 0.122006 0.129532 0.137064 0.144601
0.152134 0.159668 0.167202 0.174736 0.182274 0.189808 0.197341 0.204873 0.212405 0.219941
0.227473 0.235005 0.242536 0.250068 0.257603 0.265134 0.272666 0.280197 0.287728 0.295264
0.302796 0.310327 0.317859 0.325391 0.332927 0.340459 0.347992 0.355524 0.363057 0.370593
0.378126 0.385659 0.393192 0.400725 0.408261 0.415795 0.423328 0.430861 0.438395 0.445932
0.453466 0.461 0.468534 0.476068 0.483605 0.49114 0.498674 0.506209 0.513743 0.521281
0.528816 0.53635 0.543885 0.55142 0 0.00126446 0.0025293 0.00379484 0.00506122 0.00632846
0.0101164 0.0139127 0.0177208 0.0215356 0.0253335 0.0268941 0.028445 0.0299893 0.0315271 0.0328585
0.0332163 0.0335737 0.0339307 0.0342874 0.034644 0.0364758 0.0383008 0.0401169 0.0419275 0.0437283
0.0455323 0.0473389 0.0491562 0.0509786 0.0528045 0.0533207 0.0538371 0.0543536 0.0548704 0.0554712
0.0567699 0.0580701 0.0593717 0.060675 0.0619796 0.0656691 0.0693743 0.0730986 0.0768357 0.0805818
0.0843426 0.0881006 0.0918594 0.0956205 0.0993854 0.106919 0.114458 0.121999 0.129544 0.137092
0.144648 0.152202 0.159756 0.16731 0.174863 0.182417 0.18997 0.197522 0.205073 0.212624
0.220176 0.227726 0.235277 0.242827 0.250377 0.257928 0.265478 0.273028 0.280579 0.288129
0.295681 0.303231 0.310782 0.318334 0.325885 0.333437 0.340989 0.34854 0.356093 0.363645
0.371198 0.37875 0.386303 0.393856 0.401409 0.408963 0.416516 0.42407 0.431624 0.439178
0.446733 0.454287 0.461842 0.469397 0.476952 0.484507 0.492062 0.499618 0.507173 0.514729
0.522285 0.529841 0.537398 0.544954 0.552511 0 0.0012656 0.00253171 0.00379834 0.00506548
0.00633316 0.00822772 0.0101248 0.0120244 0.013927 0.0158316 0.0177499 0.0196734 0.0215982 0.0235266
0.0254669 0.0264387 0.0274076 0.0283724 0.029333 0.0302938 0.0307558 0.0312161 0.0316746 0.0321313
0.0326296 0.0331016 0.0335714 0.0340393 0.0345051 0.0349683 0.0358823 0.0367933 0.0377001 0.0386026
0.0394961 0.040389 0.0412811 0.0421722 0.043063 0.0439532 0.0457353 0.0475285 0.0493321 0.0511425
0.0514459 0.0517502 0.0520547 0.0523595 0.0526644 0.0529695 0.0547966 0.0566357 0.0584859 0.0603434
0.0622027 0.0640706 0.0659414 0.0678148 0.0696909 0.0715695 0.0734577 0.0753373 0.0772167 0.0790984
0.0809828 0.0829226 0.0848675 0.086812 0.0887559 0.0905938 0.0924637 0.0943342 0.0962053 0.0980769
0.099949 0.107531 0.115118 0.122708 0.130302 0.137901 0.145513 0.15312 0.160724 0.168328
0.175932 0.183538 0.191141 0.198742 0.206343 0.213944 0.221546 0.229146 0.236746 0.244345
0.251944 0.259546 0.267145 0.274744 0.282344 0.289943 0.297545 0.305144 0.312744 0.320344
0.327944 0.335546 0.343147 0.350747 0.358348 0.365948 0.373551 0.381152 0.388753 0.396355
0.403957 0.411559 0.419162 0.426764 0.434366 0.441968 0.449572 0.457175 0.464778 0.472381
0.479984 0.487588 0.495191 0.502795 0.510399 0.518003 0.525607 0.533211 0.540816 0.548421
0.556026 0 0.00126278 0.00252623 0.00379077 0.00505656 0.00632359 0.008234 0.0101465 0.0120629
0.0139827 0.0159079 0.0178261 0.0197576 0.0217024 0.0236599 0.0256399 0.0266407 0.0276429 0.0286461
0.0296493 0.0306652 0.0308934 0.0311215 0.0313495 0.0315757 0.0317542 0.0325263 0.0332857 0.0340329
0.0347653 0.035488 0.0359375 0.0363853 0.0368317 0.0372768 0.0377165 0.0381572 0.0385955 0.0390311
0.0394658 0.0398986 0.0403337 0.0407687 0.0412033 0.0416381 0.0420753 0.0425126 0.0429488 0.0433843
0.0438206 0.0442594 0.0451379 0.0460252 0.0469221 0.047827 0.0487451 0.0496703 0.0505954 0.0515247
0.0524591 0.0533987 0.0537645 0.0541313 0.0544985 0.0548663 0.0553365 0.0558984 0.056461 0.0570244
0.0575885 0.0581526 0.0591116 0.0600716 0.0610344 0.0619997 0.0629668 0.0649117 0.0668512 0.0687887
0.0707276 0.0726654 0.0745937 0.0765299 0.0784694 0.0804099 0.0823548 0.0862682 0.0901892 0.0940816
0.0979696 0.101853 0.109582 0.117286 0.124941 0.132587 0.140237 0.147907 0.15557 0.163231
0.170888 0.178545 0.186205 0.193861 0.201516 0.20917 0.216823 0.224478 0.23213 0.239782
0.247434 0.255085 0.262738 0.270389 0.27804 0.285691 0.293341 0.300994 0.308645 0.316296
0.323947 0.331597 0.33925 0.346901 0.354552 0.362203 0.369854 0.377507 0.385158 0.39281
0.400461 0.408112 0.415765 0.423417 0.431068 0.43872 0.446372 0.454024 0.461676 0.469328
0.47698 0.484632 0.492285 0.499937 0.50759 0.515242 0.522894 0.530546 0.538199 0.545852
0.553505 0.561158 0 0.00126454 0.00252972 0.00379554 0.00506201 0.00632975 0.0082471 0.0101668
0.0120899 0.0140195 0.0159616 0.0169323 0.0179059 0.0188828 0.0198629 0.0208462 0.0218347 0.0228317
0.0238378 0.024853 0.0258787 0.0263972 0.026918 0.0274426 0.0279709 0.0285056 0.0287693 0.0290343
0.0293011 0.0295702 0.0296701 0.0299925 0.0303167 0.0306424 0.0309683 0.0313035 0.0314113 0.031519
0.0316268 0.0317347 0.0318195 0.031912 0.0320045 0.0320968 0.0321891 0.0322668 0.0323655 0.0324641
0.0325627 0.0326612 0.0327602 0.0329032 0.033046 0.0331885 0.0333296 0.0334361 0.0335757 0.0337144
0.0338521 0.0339881 0.0341264 0.0342497 0.0343712 0.0344908 0.0346089 0.0347201 0.0347861 0.0348515
0.0349165 0.0349813 0.0350454 0.035117 0.0351881 0.0352588 0.035329 0.0354014 0.0354669 0.0355321
0.035597 0.0356617 0.0357639 0.0359372 0.0361098 0.0362847 0.0364574 0.0365884 0.0367061 0.0368241
0.0369423 0.0370602 0.0374131 0.0374722 0.0375313 0.0375904 0.0376493 0.037708 0.0379028 0.038097
0.0382914 0.038486 0.0388063 0.038994 0.0391817 0.0393696 0.0395578 0.0399064 0.040128 0.0403496
0.0405716 0.0407939 0.041017 0.0412389 0.0414609 0.0416832 0.0419059 0.0421295 0.0421842 0.0422387
0.0422934 0.042348 0.0423964 0.0425663 0.0427364 0.0429068 0.0430773 0.0432484 0.0437006 0.044156
0.0446134 0.0450703 0.0455375 0.0458349 0.0461302 0.046427 0.0467249 0.0469739 0.0471642 0.047354
0.0475435 0.0477325 0.0479221 0.0482543 0.0485842 0.048916 0.0492499 0.0495273 0.0496937 0.0498603
0.0500271 0.050194 0.0503614 0.0510411 0.0517327 0.0524487 0.0531919 0.0537972 0.0541831 0.054567
0.054949 0.0553289 0.0557089 0.0568256 0.0579214 0.0590317 0.0601565 0.0612861 0.0615236 0.0617606
0.0619976 0.0622346 0.0624791 0.0633762 0.0642742 0.0651736 0.0660743 0.0669753 0.0680828 0.0691877
0.0702972 0.0714114 0.0726654 0.0727277 0.07279 0.0728524 0.0729147 0.0729772 0.0740586 0.0751452
0.0762371 0.0773344 0.0784253 0.0806952 0.0829529 0.0851813 0.0873756 0.0895314 0.0938894 0.0982283
0.102517 0.106763 0.110937 0.11896 0.12692 0.134823 0.142669 0.150459 0.155838 0.161226
0.166611 0.171993 0.177576 0.179898 0.182219 0.184541 0.186862 0.189182 0.196918 0.204651
0.212384 0.220115 0.227845 0.235574 0.243303 0.25103 0.258757 0.266484 0.27421 0.281935
0.289661 0.297385 0.30511 0.312835 0.320559 0.328282 0.336006 0.343729 0.351453 0.359176
0.366898 0.374621 0.382343 0.384608 0.386873 0.389138 0.391403 0.39367 0.399127 0.404583
0.41004 0.415497 0.420953 0.428674 0.436396 0.444119 0.451841 0.459564 0.467283 0.475006
0.482729 0.490452 0.498176 0.505893 0.513617 0.52134 0.529064 0.536788 0.544504 0.552228
0.559952 0.567676 0.5754 0 0.00125412 0.00250918 0.00376559 0.00502349 0.00628302 0.00821463
0.0101489 0.0120861 0.0140305 0.0159895 0.0169628 0.0179401 0.0189215 0.0199069 0.0208965 0.0218918
0.0228982 0.0239163 0.0249463 0.0259893 0.026519 0.0270524 0.0275929 0.0281403 0.0286966 0.0292647
0.029841 0.0304303 0.0310342 0.0316683 0.0317007 0.031733 0.0317654 0.0317978 0.031827 0.0321204
0.0324142 0.0327085 0.0330037 0.0333109 0.0333266 0.0333423 0.033358 0.0333737 0.0333887 0.0335935
0.0337985 0.0340022 0.0341991 0.0342933 0.0344182 0.0345413 0.0346627 0.0347821 0.0349049 0.0350889
0.0352686 0.0354441 0.0356144 0.0357621 0.0358505 0.0359386 0.0360263 0.0361133 0.036197 0.0363431
0.0364846 0.0366219 0.0367599 0.0369521 0.0370313 0.0371105 0.0371895 0.0372685 0.037343 0.0373834
0.0374237 0.0374641 0.0375048 0.0375502 0.037987 0.0384312 0.0388846 0.0393451 0.0397529 0.0402296
0.0406958 0.0411586 0.0416185 0.0420958 0.0425839 0.0430591 0.0435189 0.043984 0.0444617 0.0449791
0.0454831 0.0459764 0.0464736 0.0469749 0.0472021 0.0474271 0.0476521 0.0478778 0.0482381 0.0488397
0.0494469 0.0500603 0.0506766 0.0508281 0.0511306 0.0514329 0.051735 0.0520369 0.0523397 0.053449
0.0545584 0.0557109 0.0569183 0.0581392 0.058529 0.0589178 0.0593065 0.0596953 0.0601407 0.0609742
0.0618101 0.0626544 0.0635096 0.0643734 0.065681 0.0669711 0.0682647 0.0695642 0.0708724 0.0718265
0.0727746 0.0737309 0.0746954 0.0759002 0.0762688 0.076638 0.0770076 0.0773778 0.0777479 0.0791437
0.080536 0.0819282 0.0833198 0.0847033 0.0874475 0.0901912 0.0929205 0.0955946 0.0981211 0.102922
0.107713 0.112339 0.116783 0.121059 0.12931 0.137486 0.145601 0.153632 0.161503 0.169235
0.177033 0.18483 0.192625 0.20042 0.208144 0.215935 0.223725 0.231514 0.239302 0.247021
0.254808 0.262593 0.270378 0.278163 0.285878 0.293662 0.301446 0.309229 0.317012 0.324726
0.332509 0.340291 0.348073 0.355856 0.363569 0.371351 0.379133 0.386914 0.394696 0.402408
0.410189 0.417971 0.425753 0.433534 0.441244 0.449026 0.456807 0.464589 0.47237 0.48008
0.487861 0.495643 0.503424 0.511206 0.518914 0.526696 0.534477 0.542259 0.550041 0.557747
0.565529 0.573311 0.581093 0.588875 0 0.00125911 0.00251889 0.00377934 0.00504126 0.00630487
0.00823396 0.010166 0.012101 0.0140437 0.0160008 0.0169744 0.0179522 0.0189341 0.0199203 0.0209108
0.0219062 0.0229128 0.0239312 0.0249618 0.0260053 0.0265355 0.0270694 0.0276093 0.0281562 0.0287123
0.0292783 0.0298525 0.0304385 0.0310379 0.031668 0.0317451 0.0318222 0.0318994 0.0319768 0.0320375
0.0322877 0.0325382 0.0327888 0.0330394 0.0332976 0.0336104 0.0339218 0.0342297 0.0345276 0.0346114
0.0346681 0.0347244 0.0347804 0.0348361 0.0348928 0.0351419 0.0353807 0.0356102 0.035831 0.0360078
0.0360554 0.0361029 0.0361501 0.0361971 0.0362434 0.0362582 0.036273 0.0362877 0.0363025 0.0363177
0.0364808 0.0366421 0.0368017 0.0369596 0.0371991 0.037246 0.0372927 0.0373395 0.0373862 0.0374315
0.0379011 0.0383772 0.0388682 0.0393716 0.0398026 0.0402829 0.0407556 0.0412282 0.0417056 0.042196
0.0427079 0.0432051 0.0436944 0.0441855 0.0446959 0.0452308 0.0457434 0.0462383 0.046734 0.0472527
0.0483597 0.0494682 0.0506524 0.0518786 0.0532174 0.0550749 0.0565317 0.0580059 0.05949 0.060979
0.0626129 0.0641777 0.0658153 0.0675293 0.0693179 0.0707538 0.0720649 0.0734098 0.0747899 0.075079
0.0759493 0.0767859 0.07759 0.078365 0.0791102 0.0827857 0.0862155 0.0893252 0.0922532 0.0949417
0.0977035 0.10031 0.102804 0.105201 0.107515 0.11238 0.117182 0.121917 0.126608 0.130979
0.139164 0.147293 0.155358 0.163356 0.171211 0.178913 0.186751 0.194641 0.202529 0.210361
0.218054 0.22588 0.233758 0.241635 0.249458 0.257147 0.264968 0.27284 0.280712 0.288531
0.296219 0.304037 0.311907 0.319776 0.327593 0.33528 0.343097 0.350965 0.358833 0.366649
0.374335 0.38215 0.390018 0.397884 0.405699 0.413385 0.421199 0.429066 0.436932 0.444746
0.452431 0.460244 0.46811 0.475976 0.483788 0.491473 0.499286 0.507151 0.515016 0.522828
0.530512 0.538324 0.546189 0.554054 0.561864 0.569548 0.577358 0.585223 0.593087 0.600897
0 0.00128 0.00256064 0.00384257 0.00512604 0.00641106 0.00831794 0.0102274 0.0121396 0.0140586
0.01599 0.0169627 0.0179387 0.018918 0.0199008 0.0208872 0.0218824 0.0228871 0.023902 0.024927
0.0259646 0.0264293 0.026896 0.0273665 0.027841 0.0279583 0.0280922 0.0282264 0.0283606 0.028495
0.0286296 0.0291763 0.0297277 0.0302883 0.0308584 0.0314503 0.0316288 0.0318072 0.0319855 0.032164
0.0322882 0.0324154 0.0325426 0.0326697 0.0327967 0.0329249 0.0329926 0.0330603 0.0331279 0.0331954
0.0332553 0.0334831 0.0337101 0.0339362 0.0341602 0.0343926 0.0344407 0.0344885 0.0345359 0.0345833
0.0346273 0.0346996 0.0347706 0.0348405 0.0349099 0.034978 0.0351284 0.0352764 0.0354203 0.035562
0.0357058 0.0357202 0.0357347 0.0357491 0.0357638 0.0357787 0.035943 0.0361025 0.0362574 0.036412
0.0366559 0.0367106 0.0367649 0.0368189 0.0368726 0.0369261 0.0369345 0.0369428 0.0369512 0.0369596
0.0369682 0.0371794 0.0373889 0.0375975 0.0378073 0.0380017 0.0382154 0.0384281 0.038641 0.0388557
0.0390699 0.0391672 0.039264 0.039361 0.0394581 0.0395581 0.0396805 0.039803 0.0399254 0.0400479
0.0401702 0.0403919 0.0406127 0.0408336 0.0410548 0.0412762 0.0414986 0.041721 0.0419433 0.0421657
0.0423898 0.0426161 0.0428407 0.0430637 0.0432862 0.0435098 0.0439561 0.0444009 0.0448465 0.0452944
0.04575 0.0466868 0.0476216 0.0485721 0.0495391 0.0504932 0.0505004 0.0505077 0.050515 0.0505223
0.0505295 0.0515277 0.0525659 0.0536095 0.0546696 0.0557458 0.0568586 0.0579537 0.0590376 0.0601218
0.0612583 0.0624453 0.0635849 0.0647111 0.0658378 0.0669664 0.0693109 0.071637 0.0739294 0.0762205
0.0785212 0.0798079 0.0811146 0.08241 0.0836917 0.0844551 0.0855228 0.0865836 0.087649 0.0887191
0.0897928 0.094266 0.0987121 0.103128 0.107509 0.111847 0.120006 0.128103 0.136132 0.144093
0.151961 0.159677 0.167447 0.175216 0.182981 0.190745 0.19845 0.206209 0.213968 0.221726
0.229483 0.237183 0.244938 0.252693 0.260448 0.268202 0.275899 0.283653 0.291406 0.299159
0.306913 0.314609 0.322362 0.330115 0.337868 0.34562 0.353316 0.361069 0.368821 0.376574
0.384327 0.392022 0.399774 0.407527 0.41528 0.423032 0.430726 0.438479 0.446232 0.453985
0.461737 0.469431 0.477184 0.484937 0.49269 0.500443 0.508135 0.515888 0.523641 0.531395
0.539148 0.546839 0.554592 0.562346 0.570099 0.577853 0 0.00127763 0.00255597 0.00383547
0.00511632 0.00639851 0.00830059 0.0102047 0.0121116 0.0140235 0.0159438 0.0169087 0.0178754 0.0188442
0.0198152 0.0207885 0.0217632 0.0227431 0.0237285 0.0247187 0.0257128 0.0267054 0.0277054 0.0287152
0.0297212 0.0307358 0.0307991 0.0308624 0.0309257 0.0309889 0.031048 0.031989 0.0329107 0.0338108
0.0346898 0.0355675 0.036021 0.0364724 0.0369219 0.0373704 0.0378129 0.0380703 0.0383269 0.0385834
0.03884 0.0397742 0.0398233 0.0398723 0.0399213 0.0399703 0.0400193 0.0408962 0.0417733 0.0426508
0.0435311 0.0444132 0.0445613 0.0447094 0.0448577 0.0450061 0.045099 0.0458502 0.0466063 0.0473685
0.0481361 0.0489094 0.0498443 0.0507647 0.0516864 0.05261 0.053544 0.0554408 0.0573773 0.0593321
0.0613096 0.0632869 0.065278 0.0672635 0.069211 0.071158 0.073108 0.0750669 0.0770228 0.0789793
0.0809357 0.08289 0.0868006 0.0907221 0.0946312 0.0985427 0.10247 0.110388 0.118295 0.126142
0.133925 0.141642 0.149334 0.157019 0.164704 0.172388 0.180072 0.18776 0.195443 0.203125
0.210806 0.218486 0.226169 0.233847 0.241526 0.249203 0.25688 0.26456 0.272236 0.279912
0.287588 0.295263 0.302942 0.310617 0.318292 0.325966 0.333641 0.341318 0.348992 0.356666
0.364339 0.372013 0.379689 0.387362 0.395035 0.402708 0.41038 0.418055 0.425727 0.433399
0.441071 0.448742 0.456416 0.464087 0.471758 0.479429 0.487099 0.494772 0.502442 0.510112
0.517781 0.52545 0.533122 0.540791 0.548459 0.556127 0.563795 0 0.00127425 0.00254912
0.00382447 0.00510112 0.00637906 0.00827553 0.0101743 0.0120754 0.0139796 0.0158879 0.0177981 0.0197134
0.0216341 0.0235602 0.0254949 0.0264679 0.0274373 0.0284018 0.0293613 0.0299149 0.0309491 0.0319756
0.0329917 0.0339976 0.0349929 0.0359054 0.0368151 0.0377208 0.0386239 0.0395173 0.0404121 0.0413057
0.0421983 0.0430898 0.0439786 0.0457596 0.0475556 0.0493649 0.0511832 0.0530187 0.0548573 0.0567009
0.0585549 0.0604167 0.0622833 0.0634886 0.0646951 0.0659022 0.0671102 0.0692632 0.069747 0.0702308
0.0707149 0.0711991 0.0716834 0.07357 0.0754566 0.077344 0.0792326 0.0811225 0.0849129 0.0887065
0.0925047 0.0963076 0.100115 0.107763 0.115402 0.122996 0.130603 0.138222 0.145862 0.153493
0.161125 0.168755 0.176384 0.184023 0.191652 0.199281 0.206908 0.214535 0.22217 0.229796
0.237422 0.245047 0.252672 0.260305 0.26793 0.275555 0.28318 0.290804 0.298436 0.306061
0.313686 0.32131 0.328934 0.336566 0.34419 0.351815 0.359439 0.367063 0.374694 0.382318
0.389943 0.397567 0.40519 0.412821 0.420445 0.428069 0.435693 0.443316 0.450946 0.45857
0.466194 0.473817 0.48144 0.48907 0.496693 0.504317 0.51194 0.519562 0.527191 0.534814
0.542436 0.550059 0.557681 0 0.00127161 0.0025436 0.00381613 0.00508926 0.00636301 0.0101431
0.0139354 0.0177272 0.0215158 0.0253095 0.025779 0.0262474 0.026715 0.0271819 0.0275783 0.0289949
0.0304063 0.0318125 0.0332138 0.0346129 0.0364572 0.0382921 0.0401109 0.0419251 0.0437343 0.0455487
0.04736 0.0491707 0.0509896 0.0528186 0.0546541 0.0564897 0.0583278 0.0601689 0.0620123 0.0657121
0.0694252 0.0731511 0.0768962 0.0806455 0.084416 0.0881818 0.0919483 0.0957167 0.099488 0.107018
0.11455 0.122086 0.129634 0.137194 0.144776 0.15235 0.159924 0.167499 0.175073 0.182658
0.190233 0.197808 0.205382 0.212956 0.220538 0.228111 0.235684 0.243257 0.250829 0.25841
0.265982 0.273555 0.281128 0.2887 0.296281 0.303854 0.311427 0.319 0.326572 0.334153