# vtk DataFile Version 2.0
tracks
ASCII
DATASET POLYDATA
POINTS 2590 float
-1.001 -0.05 0.0011 -0.900789 -0.0500215 0.00109731 -0.800577 -0.050043 0.00109464 -0.700366 -0.0500645
0.00109196 -0.600155 -0.0500859 0.0010893 -0.499943 -0.0501072 0.00108664 -0.424945 -0.0501111 0.00107895
-0.349947 -0.050152 0.00106883 -0.274949 -0.0501926 0.00105881 -0.19995 -0.0502327 0.00104888 -0.124952
-0.0502725 0.00103904 -0.0499538 -0.0502819 0.00103928 0.0250446 -0.0502908 0.00104802 0.100043 -0.0502997
0.00105684 0.175041 -0.0503087 0.00106573 0.25004 -0.0503178 0.00107469 0.400037 -0.0503118 0.00109078
0.550035 -0.05031 0.001105 0.700032 -0.0503082 0.00111941 0.85003 -0.0503063 0.001134 1.00003
-0.0503045 0.00114879 1.15003 -0.0503151 0.00115599 1.30002 -0.0503208 0.00116046 1.45002 -0.0503266
0.00116495 1.60002 -0.0503323 0.00116946 1.75002 -0.0503381 0.00117399 1.90002 -0.0503466 0.00117685
2.05002 -0.0503531 0.00117878 2.20001 -0.0503596 0.00118072 2.35001 -0.0503661 0.00118265 2.50001
-0.0503726 0.00118459 2.65001 -0.0503806 0.00118564 2.80001 -0.0503886 0.00118633 2.95001 -0.0503967
0.00118701 3.10001 -0.0504048 0.0011877 3.25001 -0.0504129 0.00118839 3.40001 -0.0504208 0.00118867
3.55001 -0.0504296 0.00118925 3.70001 -0.0504384 0.00118983 3.85001 -0.0504472 0.0011904 4.00001
-0.050456 0.00119098 4.15 -0.0504638 0.00119106 4.3 -0.0504733 0.00119173 4.45 -0.0504829
0.0011924 4.6 -0.0504925 0.00119308 4.75 -0.0505021 0.00119375 4.9 -0.0505097 0.00119375
5.05 -0.0505198 0.00119458 5.2 -0.0505299 0.00119542 5.35 -0.05054 0.00119625 5.5
-0.0505501 0.00119709 5.65 -0.0505576 0.00119704 5.8 -0.050568 0.00119804 5.95 -0.0505784
0.00119904 6.1 -0.0505888 0.00120003 6.25 -0.0505992 0.00120103 6.4 -0.0506066 0.00120096
6.55 -0.0506172 0.00120209 6.7 -0.0506278 0.00120323 6.85 -0.0506384 0.00120436 7
-0.050649 0.0012055 7.15 -0.0506564 0.00120541 7.3 -0.0506672 0.00120665 7.45 -0.0506779
0.00120789 7.6 -0.0506887 0.00120913 7.75 -0.0506994 0.00121038 7.9 -0.0507068 0.00121027
8.05 -0.0507176 0.0012116 8.2 -0.0507285 0.00121294 8.35 -0.0507393 0.00121427 8.5
-0.0507502 0.00121561 8.65 -0.0507575 0.0012155 8.8 -0.0507684 0.00121691 8.95 -0.0507794
0.00121832 9.1 -0.0507903 0.00121973 9.25 -0.0508013 0.00122114 9.4 -0.0508085 0.00122102
9.55 -0.0508655 0.00122315 9.7 -0.0509739 0.00122603 9.85 -0.0511335 0.00122966 10
-0.0513445 0.00123403 -1.001 -0.05 0.0537316 -0.900807 -0.050106 0.0535766 -0.800614 -0.0502122
0.0533945 -0.700421 -0.0503419 0.0531786 -0.600229 -0.0505025 0.0529271 -0.500035 -0.050694 0.0526401
-0.425004 -0.0509419 0.0524177 -0.349973 -0.0512792 0.0521284 -0.274943 -0.0516638 0.05186 -0.199912
-0.052082 0.051634 -0.124879 -0.0524848 0.0514903 -0.0498864 -0.0527515 0.0515272 0.0251065 -0.0529721
0.051693 0.100099 -0.053188 0.0519273 0.175092 -0.0534133 0.0522098 0.250087 -0.0536338 0.0525273
0.400077 -0.0540209 0.0531631 0.550067 -0.0544056 0.0536781 0.700057 -0.054749 0.0541444 0.850047
-0.055051 0.0545616 1.00003 -0.0553196 0.0549292 1.14684 -0.0556883 0.0552076 1.29365 -0.0560254
0.0554673 1.44046 -0.0563598 0.0556934 1.58727 -0.0566915 0.0558857 1.70468 -0.0569548 0.0560126
1.71374 -0.0569759 0.056021 1.72281 -0.056997 0.0560294 1.73188 -0.0570183 0.0560377 1.74095
-0.0570397 0.0560459 1.75002 -0.0570612 0.056054 1.90002 -0.0574185 0.0561874 2.05002 -0.0577715
0.0563035 2.20001 -0.0581206 0.0564019 2.35001 -0.0584658 0.0564826 2.50001 -0.0588071 0.0565457
2.65001 -0.0591536 0.0565977 2.80001 -0.0594998 0.0566429 2.95001 -0.0598451 0.0566805 3.10001
-0.0601896 0.0567104 3.25001 -0.0605332 0.0567325 3.40001 -0.0608778 0.0567496 3.55001 -0.0612238
0.056766 3.70001 -0.0615682 0.0567803 3.85001 -0.0619112 0.0567927 4.00001 -0.0622527 0.0568029
4.15 -0.0625919 0.0568108 4.3 -0.0629349 0.0568196 4.45 -0.0632765 0.0568278 4.6
-0.0636166 0.0568351 4.75 -0.0639552 0.0568417 4.9 -0.0642889 0.056846 5.05 -0.064628
0.0568523 5.2 -0.0649657 0.0568582 5.35 -0.0653021 0.0568637 5.5 -0.0656371 0.0568688
5.65 -0.0659653 0.0568713 5.8 -0.0663 0.0568764 5.95 -0.0666334 0.0568812 6.1
-0.0669656 0.0568858 6.25 -0.0672966 0.0568902 6.4 -0.0676196 0.0568916 6.55 -0.0679497
0.056896 6.7 -0.0682787 0.0569003 6.85 -0.0686064 0.0569044 7 -0.068933 0.0569084
7.15 -0.0692509 0.0569091 7.3 -0.0695764 0.0569131 7.45 -0.0699007 0.056917 7.6
-0.0702239 0.0569208 7.75 -0.0705459 0.0569245 7.9 -0.0708586 0.0569246 8.05 -0.0711794
0.0569284 8.2 -0.071499 0.0569322 8.35 -0.0718175 0.0569359 8.5 -0.0721349 0.0569397
8.65 -0.0724426 0.0569397 8.8 -0.0727586 0.0569435 8.95 -0.0730735 0.0569472 9.1
-0.0733872 0.0569508 9.25 -0.0736997 0.0569543 9.4 -0.0740023 0.0569539 9.55 -0.0743138
0.0569575 9.7 -0.0746249 0.056961 9.85 -0.0749354 0.0569645 10 -0.0752455 0.056968
-1.001 -0.05 0.106363 -0.900818 -0.0500779 0.106138 -0.800636 -0.0501536 0.105866 -0.700455
-0.0502559 0.105547 -0.600274 -0.0504282 0.105006 -0.50009 -0.0506704 0.104245 -0.424996 -0.0509572
0.10366 -0.349901 -0.0513053 0.103054 -0.274807 -0.0516577 0.102518 -0.199711 -0.0519557 0.102089
-0.124607 -0.052298 0.101987 -0.0496047 -0.0525463 0.1021 0.0253975 -0.0527397 0.10233 0.100399
-0.0529203 0.102642 0.175401 -0.0531213 0.103039 0.250411 -0.0533425 0.103521 0.400346 -0.0537499
0.104521 0.550283 -0.0541559 0.105393 0.70022 -0.0545229 0.106177 0.850157 -0.0548592 0.106795
1.00009 -0.0551644 0.107245 1.15007 -0.0556051 0.10751 1.30006 -0.0559017 0.107807 1.45005
-0.0561473 0.108083 1.60003 -0.0563869 0.108327 1.75002 -0.0566206 0.108538 1.90002 -0.0569282
0.108683 2.05002 -0.0571724 0.108838 2.20001 -0.0574108 0.108977 2.35001 -0.0576467 0.109099
2.50001 -0.05788 0.109204 2.65001 -0.0581697 0.109274 2.80001 -0.0584174 0.109341 2.95001
-0.0586639 0.109402 3.10001 -0.0589096 0.109454 3.25001 -0.0591546 0.109499 3.40001 -0.0594426
0.109534 3.55001 -0.0596942 0.109567 3.70001 -0.0599439 0.109599 3.85001 -0.060192 0.109628
4 -0.0604385 0.109655 4.15 -0.0607204 0.109681 4.3 -0.0609719 0.109703 4.45
-0.0612215 0.109723 4.6 -0.0614697 0.109743 4.75 -0.0617162 0.109762 4.9 -0.0619917
0.109785 5.05 -0.0622412 0.1098 5.2 -0.0624891 0.109815 5.35 -0.0627356 0.109829
5.5 -0.0629806 0.109843 5.65 -0.0632497 0.109864 5.8 -0.0634967 0.109875 5.95
-0.0637422 0.109886 6.1 -0.0639864 0.109896 6.25 -0.0642294 0.109907 6.4 -0.0644924
0.109926 6.55 -0.0647365 0.109934 6.7 -0.0649793 0.109942 6.85 -0.0652208 0.109949
7 -0.0654611 0.109957 7.15 -0.0657183 0.109975 7.3 -0.0659593 0.109981 7.45
-0.066199 0.109986 7.6 -0.0664375 0.109991 7.75 -0.0666749 0.109997 7.9 -0.0669264
0.110014 8.05 -0.0671641 0.110018 8.2 -0.0674005 0.110022 8.35 -0.0676358 0.110026
8.5 -0.06787 0.110029 8.65 -0.068116 0.110047 8.8 -0.0683502 0.110049 8.95
-0.0685831 0.110052 9.1 -0.0688148 0.110054 9.25 -0.0690454 0.110056 9.4 -0.0692858
0.110073 9.55 -0.0695167 0.110074 9.7 -0.069747 0.110075 9.85 -0.0699768 0.110076
10 -0.0702061 0.110077 -1.001 -0.05 0.158995 -0.900796 -0.0500884 0.15877 -0.800593
-0.0501927 0.158425 -0.700392 -0.0503541 0.157689 -0.600196 -0.0505854 0.156478 -0.499992 -0.0508783
0.154639 -0.42472 -0.0514851 0.153037 -0.349437 -0.0519519 0.152117 -0.274149 -0.052348 0.151555
-0.19886 -0.0527422 0.151262 -0.123699 -0.0530589 0.151315 -0.0487805 -0.0531817 0.151479 0.0261372
-0.05326 0.151959 0.101053 -0.0533996 0.152664 0.175968 -0.0535661 0.153462 0.250944 -0.05372
0.154291 0.400784 -0.0539316 0.155712 0.550624 -0.0544382 0.156889 0.700468 -0.05491 0.157643
0.850313 -0.0553078 0.158241 1.00014 -0.0556744 0.158672 1.15012 -0.0561772 0.158917 1.30009
-0.0565354 0.159195 1.45007 -0.0568004 0.159463 1.60005 -0.0569884 0.159718 1.75002 -0.0571706
0.15994 1.90002 -0.0574277 0.160095 2.05002 -0.057621 0.160262 2.20002 -0.057802 0.160414
2.35001 -0.0579743 0.16055 2.50001 -0.0581442 0.16067 2.65001 -0.0583709 0.160754 2.80001
-0.0585555 0.160836 2.95001 -0.0587378 0.160912 3.10001 -0.0589184 0.16098 3.25001 -0.0590984
0.161041 3.40001 -0.0593215 0.161091 3.55001 -0.0595082 0.16114 3.70001 -0.0596921 0.161188
3.85001 -0.0598738 0.161234 4 -0.060054 0.161278 4.15 -0.0602694 0.16132 4.3
-0.0604546 0.161358 4.45 -0.0606373 0.161396 4.6 -0.0608177 0.161433 4.75 -0.0609967
0.161469 4.9 -0.0612043 0.161509 5.05 -0.0613863 0.161541 5.2 -0.0615661 0.161573
5.35 -0.0617439 0.161604 5.5 -0.0619204 0.161636 5.65 -0.0621205 0.161674 5.8
-0.062299 0.161702 5.95 -0.0624755 0.16173 6.1 -0.0626503 0.161758 6.25 -0.0628239
0.161785 6.4 -0.0630171 0.161822 6.55 -0.0631918 0.161847 6.7 -0.0633648 0.161872
6.85 -0.0635362 0.161897 7 -0.0637064 0.161921 7.15 -0.063893 0.161957 7.3
-0.0640639 0.16198 7.45 -0.0642332 0.162002 7.6 -0.064401 0.162025 7.75 -0.0645677
0.162047 7.9 -0.0647481 0.162081 8.05 -0.0649151 0.162102 8.2 -0.0650807 0.162123
8.35 -0.0652449 0.162144 8.5 -0.0654079 0.162164 8.65 -0.0655824 0.162199 8.8
-0.0657455 0.162218 8.95 -0.065907 0.162238 9.1 -0.0660671 0.162257 9.25 -0.0662261
0.162276 9.4 -0.0663944 0.162309 9.55 -0.0665537 0.162327 9.7 -0.0667121 0.162344
9.85 -0.0668698 0.162362 10 -0.067027 0.162379 -1.001 -0.05 0.211626 -0.947633
-0.0500805 0.211469 -0.894266 -0.0501656 0.211279 -0.840899 -0.0502552 0.211055 -0.787532 -0.0503894
0.210764 -0.72432 -0.0506331 0.210286 -0.679442 -0.0509106 0.209636 -0.634568 -0.0512454 0.208757
-0.589697 -0.051584 0.207742 -0.544829 -0.0519276 0.206589 -0.499928 -0.0522776 0.205296 -0.469416
-0.0525716 0.204242 -0.438906 -0.0528757 0.203125 -0.408391 -0.0531643 0.202136 -0.377873 -0.0534386
0.201268 -0.329621 -0.0538569 0.200029 -0.288657 -0.0541961 0.199123 -0.247688 -0.0545351 0.198433
-0.206716 -0.0548784 0.198055 -0.165742 -0.0551862 0.197965 -0.124884 -0.0554195 0.198138 -0.0496125
-0.0557252 0.198849 0.0256571 -0.0558623 0.199799 0.100922 -0.0559715 0.201081 0.176185 -0.0561142
0.202441 0.251487 -0.0562501 0.203594 0.251811 -0.0562506 0.203598 0.252134 -0.0562511 0.203603
0.252457 -0.0562516 0.203607 0.25278 -0.0562521 0.203611 0.253105 -0.0562526 0.203615 0.327538
-0.0563663 0.204589 0.401973 -0.0564818 0.205436 0.476409 -0.0565994 0.206157 0.550846 -0.0567455
[...]
POINT_DATA 2590
FIELD attributes 4
age 1 2590 float
0 0.00501121 0.0100224 0.0150336 0.0200448 0.025056 0.0288056 0.0325533 0.036301 0.0400488 0.0437965
0.0475449 0.0512905 0.0550361 0.0587817 0.0625272 0.070024 0.0775229 0.0850219 0.0925208 0.10002
0.10752 0.115019 0.122519 0.130019 0.137519 0.145019 0.152519 0.160019 0.167518 0.175018
0.182518 0.190018 0.197517 0.205017 0.212517 0.220017 0.227516 0.235016 0.242516 0.250015
0.257515 0.265015 0.272515 0.280015 0.287514 0.295014 0.302514 0.310014 0.317513 0.325013
0.332513 0.340013 0.347512 0.355012 0.362512 0.370012 0.377512 0.385011 0.392511 0.400011
0.407511 0.415011 0.42251 0.43001 0.43751 0.44501 0.45251 0.460009 0.467509 0.475009
0.482509 0.490009 0.497508 0.505008 0.512508 0.520008 0.527507 0.535005 0.542503 0.55
0 0.00502602 0.0100533 0.0150747 0.0200879 0.0250929 0.028832 0.0325652 0.0362916 0.0400113
0.0437247 0.0474309 0.0511301 0.0548275 0.0585249 0.062224 0.0696347 0.0770708 0.0845216 0.0919872
0.0994674 0.106802 0.114138 0.121475 0.128813 0.134683 0.135136 0.13559 0.136043 0.136496
0.13695 0.14445 0.15195 0.15945 0.166949 0.174447 0.181945 0.189442 0.19694 0.204437
0.211934 0.219431 0.226928 0.234425 0.241922 0.249419 0.256917 0.264414 0.271912 0.279409
0.286907 0.294406 0.301904 0.309402 0.3169 0.324398 0.331897 0.339395 0.346894 0.354393
0.361891 0.369391 0.37689 0.384389 0.391888 0.399387 0.406887 0.414386 0.421886 0.429385
0.436885 0.444386 0.451885 0.459386 0.466886 0.474386 0.481887 0.489387 0.496888 0.504389
0.511889 0.519391 0.526892 0.534393 0.541894 0.549395 0 0.005028 0.0100578 0.0150819
0.0200993 0.0251105 0.0288575 0.0325974 0.0363282 0.0400541 0.0437702 0.0474749 0.0511738 0.0548717
0.0585686 0.062265 0.0696634 0.0770888 0.0845323 0.0919979 0.0994852 0.106988 0.114493 0.122
0.129509 0.137018 0.144533 0.152042 0.15955 0.167058 0.174565 0.182078 0.189583 0.197089
0.204594 0.212099 0.219611 0.227116 0.234621 0.242126 0.249631 0.257143 0.264648 0.272154
0.279659 0.287165 0.294678 0.302184 0.309689 0.317195 0.324701 0.332215 0.339721 0.347227
0.354733 0.36224 0.369753 0.37726 0.384766 0.392273 0.39978 0.407294 0.414801 0.422308
0.429815 0.437322 0.444836 0.452344 0.459851 0.467359 0.474866 0.482381 0.489889 0.497397
0.504905 0.512412 0.519928 0.527436 0.534944 0.542453 0.549961 0 0.00503011 0.0100662
0.0150995 0.0201269 0.0251495 0.0289152 0.0326691 0.036411 0.0401426 0.0438574 0.0475524 0.0512419
0.0549304 0.0586181 0.0623093 0.0696964 0.0771199 0.0845739 0.0920444 0.0995361 0.107048 0.114562
0.12208 0.129602 0.137126 0.144655 0.152178 0.159701 0.167224 0.174746 0.182274 0.189795
0.197315 0.204836 0.212356 0.219883 0.227403 0.234923 0.242443 0.249964 0.257491 0.265011
0.272532 0.280053 0.287574 0.295102 0.302623 0.310144 0.317665 0.325186 0.332714 0.340236
0.347757 0.355279 0.3628 0.370329 0.377851 0.385373 0.392894 0.400416 0.407946 0.415468
0.42299 0.430512 0.438035 0.445565 0.453087 0.46061 0.468132 0.475655 0.483185 0.490708
0.498231 0.505755 0.513278 0.520809 0.528332 0.535855 0.543379 0.550902 0 0.00268268
0.00536705 0.0080531 0.0107385 0.0139172 0.0161725 0.0184275 0.0206816 0.022935 0.0251893 0.0267188
0.0282463 0.0297708 0.0312924 0.0336925 0.0357224 0.0377466 0.0397653 0.0417784 0.0437801 0.0474589
0.051139 0.0548204 0.0585083 0.062209 0.0622249 0.0622409 0.0622568 0.0622727 0.0622887 0.0659554
0.069632 0.0733186 0.0770155 0.0807223 0.0813139 0.0819055 0.0824971 0.0830888 0.083666 0.0868237
0.089984 0.0931468 0.0963122 0.0994797 0.107 0.114522 0.122049 0.129581 0.137117 0.144661
0.152197 0.159734 0.167271 0.174807 0.18235 0.189885 0.19742 0.204955 0.21249 0.220032
0.227566 0.235101 0.242636 0.250171 0.257713 0.265248 0.272783 0.280318 0.287853 0.295396
0.302931 0.310467 0.318003 0.325539 0.333082 0.340618 0.348154 0.35569 0.363226 0.370769
0.378306 0.385842 0.393379 0.400915 0.408459 0.415996 0.423533 0.43107 0.438607 0.446151
0.453688 0.461226 0.468763 0.4763 0.483845 0.491383 0.49892 0.506458 0.513996 0.521541
0.529079 0.536617 0.544156 0.551694 0 0.00126444 0.00252926 0.00379476 0.00506106 0.00632818
0.0101157 0.0139115 0.017719 0.021533 0.0253295 0.0269133 0.0284869 0.0300536 0.0316132 0.0330033
0.033329 0.0336544 0.0339794 0.0343042 0.0346289 0.0364571 0.0382782 0.0400903 0.0418973 0.0436947
0.0454952 0.0473003 0.0491174 0.0509395 0.0527657 0.0529127 0.0530597 0.0532067 0.0533537 0.0535077
0.0551906 0.0568763 0.0585648 0.0602561 0.0619501 0.065646 0.0693587 0.0730895 0.076831 0.0805815
0.0843451 0.0881078 0.0918712 0.0956374 0.0994058 0.106941 0.114479 0.122021 0.129567 0.137117
0.144683 0.152235 0.159788 0.167341 0.174893 0.182454 0.190005 0.197557 0.205108 0.212659
0.220217 0.227768 0.235319 0.24287 0.250421 0.25798 0.265531 0.273082 0.280633 0.288185
0.295744 0.303295 0.310847 0.318399 0.32595 0.33351 0.341062 0.348614 0.356166 0.363718
0.371278 0.37883 0.386382 0.393935 0.401487 0.409047 0.4166 0.424152 0.431705 0.439258
0.446819 0.454371 0.461924 0.469477 0.477031 0.484592 0.492145 0.499698 0.507251 0.514805
0.522366 0.52992 0.537473 0.545027 0.55258 0 0.00126544 0.0025314 0.00379787 0.00506486
0.00633238 0.00822675 0.0101235 0.0120227 0.0139248 0.015829 0.0177464 0.0196687 0.021592 0.0235185
0.0254572 0.0264283 0.0273967 0.0283607 0.0293203 0.0302797 0.0307559 0.0312304 0.0317029 0.0321733
0.0326867 0.0331417 0.0335947 0.0340457 0.0344947 0.0349412 0.0358516 0.0367588 0.0376618 0.0385606
0.0394505 0.0403397 0.0412273 0.0421143 0.0430009 0.0438881 0.0452336 0.0465858 0.047945 0.0492961
0.0528827 0.0547117 0.0565545 0.0584085 0.0602693 0.0621308 0.0640022 0.0658748 0.0677495 0.0696268
0.0715082 0.0733969 0.0752801 0.0771595 0.0790407 0.0809271 0.0840505 0.087178 0.0903071 0.0934379
0.0960875 0.0968539 0.0976205 0.0983872 0.099154 0.099921 0.107514 0.115109 0.122708 0.130311
0.137918 0.14555 0.153157 0.160759 0.168361 0.175963 0.183584 0.191183 0.19878 0.206378
0.213975 0.221592 0.229189 0.236785 0.244381 0.251977 0.259592 0.267188 0.274783 0.282379
0.289975 0.297588 0.305184 0.312779 0.320374 0.32797 0.335582 0.343177 0.350772 0.358367
0.365962 0.373572 0.381168 0.388762 0.396356 0.403951 0.41156 0.419155 0.426749 0.434343
0.441938 0.449546 0.45714 0.464734 0.472328 0.479922 0.487529 0.495123 0.502716 0.510309
0.517903 0.525508 0.533102 0.540695 0.548288 0.555882 0 0.00126279 0.00252624 0.00379073
0.0050564 0.00632325 0.00823327 0.0101453 0.012061 0.0139802 0.0159046 0.0178219 0.0197521 0.0216951
0.0236509 0.025629 0.0266289 0.0276296 0.0286307 0.0296311 0.0306433 0.0308908 0.0311384 0.0313855
0.0316307 0.0318206 0.0325712 0.0333095 0.0340347 0.0347463 0.0354501 0.0358973 0.0363427 0.0367866
0.0372291 0.0376655 0.038103 0.0385376 0.0389697 0.039401 0.0398299 0.0402618 0.0406936 0.0411256
0.0415581 0.0419932 0.0424286 0.0428634 0.0432984 0.0437344 0.0441727 0.0450495 0.0459357 0.0468321
0.0477401 0.0486655 0.049419 0.0501714 0.0509261 0.0516843 0.0526208 0.052768 0.0529153 0.0530626
0.05321 0.0533576 0.0543116 0.0552645 0.0562194 0.0571766 0.0581361 0.0591047 0.0600723 0.0610409
0.0620126 0.0629859 0.0649543 0.0669174 0.0688749 0.0708368 0.0727822 0.0747133 0.0766593 0.0786205
0.0805857 0.0825556 0.0865154 0.0904666 0.094392 0.0983023 0.102216 0.110042 0.117835 0.125558
0.133223 0.140892 0.148589 0.156265 0.163937 0.171604 0.179269 0.18695 0.194613 0.202275
0.209935 0.217594 0.225268 0.232926 0.240584 0.24824 0.255896 0.263565 0.271221 0.278876
0.286529 0.294183 0.301849 0.309502 0.317155 0.324806 0.332458 0.34012 0.347772 0.355422
0.363072 0.370721 0.37838 0.386029 0.393678 0.401325 0.408973 0.416629 0.424276 0.431923
0.439568 0.447214 0.454867 0.462512 0.470157 0.477801 0.485445 0.493095 0.500739 0.508381
0.516023 0.523665 0.531312 0.538953 0.546594 0.554235 0.561875 0 0.00126441 0.00252947
0.00379517 0.00506153 0.00632913 0.00824617 0.0101656 0.0120884 0.0140174 0.0159586 0.0169287 0.0179016
0.0188777 0.019857 0.0208395 0.0218271 0.0228229 0.0238276 0.0248413 0.0258654 0.026383 0.0269024
0.0274254 0.0279521 0.0284851 0.0287752 0.0290668 0.0293606 0.0296572 0.0297551 0.0300553 0.0303569
0.0306593 0.0309615 0.031272 0.0313689 0.0314657 0.0315627 0.0316599 0.0317309 0.0317657 0.0318006
0.0318354 0.0318702 0.0319034 0.0320669 0.0322302 0.0323934 0.0325565 0.0327208 0.0328995 0.0330778
0.0332556 0.0334305 0.0335595 0.0336652 0.0337703 0.0338748 0.0339784 0.0340835 0.0341941 0.0343031
0.0344107 0.0345173 0.0346044 0.0346586 0.0347125 0.0347661 0.0348194 0.0348716 0.0349693 0.0350666
0.0351634 0.0352598 0.0353541 0.035476 0.0355966 0.0357157 0.0358337 0.0360263 0.0361269 0.036227
0.0363268 0.0364265 0.0365162 0.0366041 0.036692 0.03678 0.0368679 0.0370291 0.0371495 0.0372697
0.0373896 0.0375094 0.0376276 0.0378464 0.0380636 0.0382808 0.0384985 0.0387126 0.0389304 0.0391476
0.039365 0.0395829 0.0398006 0.0400211 0.0402399 0.0404591 0.0406785 0.0408986 0.0411185 0.041338
0.0415577 0.0417782 0.0420012 0.0422252 0.0424476 0.0426701 0.0428932 0.0431173 0.0434533 0.0437909
0.0441341 0.0444831 0.0446463 0.0448053 0.0449647 0.0451244 0.0452845 0.0454457 0.0459319 0.0464109
0.0468901 0.0473651 0.047861 0.0483773 0.0488834 0.0493905 0.0499023 0.0504213 0.0504923 0.0505634
0.0506346 0.050706 0.0507759 0.0517812 0.0528295 0.0539232 0.0549775 0.0560444 0.057247 0.0584272
0.059609 0.0607969 0.0619846 0.0623889 0.0627922 0.0631953 0.0635987 0.0640535 0.0648543 0.065647
0.0664375 0.0672302 0.0680217 0.068114 0.0682063 0.0682983 0.0683902 0.0684815 0.0695828 0.0706746
0.0717646 0.0728526 0.0739348 0.075087 0.0762607 0.0774383 0.0786172 0.0797989 0.0812346 0.0826715
0.0841151 0.0855636 0.0873885 0.0881745 0.088957 0.089736 0.0905116 0.0912833 0.0957938 0.100279
0.104691 0.109012 0.113201 0.121378 0.129491 0.137532 0.145501 0.153387 0.161148 0.168909
0.176667 0.184422 0.192174 0.199923 0.207672 0.215419 0.223164 0.230907 0.237032 0.243157
0.249281 0.255404 0.261613 0.26321 0.264807 0.266403 0.268 0.269597 0.27733 0.285065
0.292801 0.300536 0.308271 0.315997 0.323732 0.331467 0.339202 0.346937 0.354655 0.36239
0.370124 0.377859 0.385593 0.393306 0.40104 0.408773 0.416507 0.424241 0.431947 0.43968
0.447413 0.455146 0.462879 0.47058 0.478312 0.486043 0.493775 0.501507 0.509203 0.516934
0.524664 0.532395 0.540125 0.547814 0.555543 0.563271 0.571 0.578729 0 0.00125411
0.00250916 0.00376552 0.00502333 0.0062827 0.008214 0.010148 0.0120848 0.0140286 0.0159868 0.0169594
0.017936 0.0189166 0.0199013 0.0208901 0.0218845 0.0228897 0.0239066 0.0249353 0.025977 0.0265055
0.0270374 0.0275759 0.0281213 0.0286755 0.029241 0.0298142 0.0304004 0.0310006 0.0316273 0.0319462
0.032265 0.0325845 0.032905 0.0332401 0.0333106 0.0333812 0.0334517 0.0335223 0.03358 0.0336571
0.0337327 0.0338074 0.0338814 0.0339437 0.0341151 0.0342832 0.0344481 0.0346094 0.0347762 0.0349188
0.0350586 0.0351959 0.0353298 0.0354491 0.0355694 0.0356892 0.0358084 0.035926 0.0360378 0.0361551
0.0362693 0.0363806 0.0364913 0.0366374 0.0367445 0.0368515 0.0369582 0.0370648 0.0371625 0.0373599
0.0375574 0.0377582 0.0379621 0.0383782 0.0386136 0.0388494 0.0390831 0.0393147 0.0395413 0.0400053
0.0404627 0.0409164 0.0413667 0.0418118 0.0422691 0.0427108 0.0431558 0.043604 0.0440551 0.0445282
0.0449952 0.0454735 0.0459563 0.0464472 0.0473136 0.0482002 0.0491007 0.0499874 0.0517769 0.0528983
0.0540219 0.055169 0.0563363 0.0575363 0.058793 0.0600226 0.0612351 0.0624569 0.0636852 0.0645955
0.0654923 0.066388 0.0672781 0.0684832 0.068762 0.0690409 0.06932 0.0695997 0.0698796 0.070619
0.0713601 0.0721005 0.072842 0.0737474 0.0742154 0.0746833 0.0751509 0.0756174 0.0760818 0.0773215
0.0785655 0.0798172 0.08107 0.0823223 0.084809 0.0872997 0.0897607 0.092179 0.0945719 0.0994013
0.104183 0.108827 0.113333 0.117688 0.121461 0.125221 0.128966 0.132695 0.137437 0.141771
0.146056 0.150292 0.154479 0.158619 0.166379 0.174147 0.181914 0.18968 0.197444 0.205189
0.212952 0.220714 0.228476 0.236238 0.243971 0.251731 0.259491 0.267251 0.275011 0.282736
0.290495 0.298254 0.306013 0.313772 0.32149 0.329247 0.337005 0.344763 0.352522 0.360233
0.367989 0.375746 0.383503 0.39126 0.398965 0.40672 0.414476 0.422231 0.429987 0.437686
0.44544 0.453194 0.460948 0.468703 0.476396 0.484148 0.491901 0.499653 0.507406 0.515095
0.522845 0.530596 0.538346 0.546096 0.55378 0.561527 0.569274 0.577022 0.58477 0
0.00125903 0.00251873 0.00377912 0.00504092 0.00630437 0.00823305 0.0101647 0.0120992 0.0140411 0.0159972
0.0169701 0.0179471 0.0189281 0.0199134 0.020903 0.0218974 0.0229025 0.0239192 0.0249477 0.0259892
0.0265182 0.0270501 0.0275877 0.028132 0.0286857 0.0292486 0.0298192 0.0303994 0.030992 0.0316142
0.0319304 0.0322472 0.0325644 0.0328815 0.0332112 0.0334491 0.0336855 0.0339201 0.0341485 0.0342452
0.0343489 0.0344516 0.0345531 0.0346535 0.0347566 0.0349578 0.0351521 0.0353399 0.0355217 0.0356764
0.0357552 0.0358338 0.0359116 0.0359886 0.0360639 0.036067 0.03607 0.0360731 0.0360761 0.0360792
0.036222 0.0363635 0.0365036 0.0366424 0.0368448 0.0369206 0.0369963 0.0370719 0.0371473 0.0372189
0.0376764 0.0381392 0.0386155 0.0390997 0.0395137 0.0399752 0.0404258 0.0408749 0.0413264 0.0417862
0.0422624 0.0427288 0.0431918 0.0436571 0.0441321 0.0446248 0.045108 0.0455854 0.0460681 0.0465648
0.0475987 0.0486552 0.0497237 0.0508118 0.0516102 0.0516755 0.0517408 0.051806 0.0518711 0.0519362
0.053066 0.0542211 0.0554035 0.0566087 0.0578339 0.0591077 0.0603585 0.0615896 0.0628371 0.064078
0.0647019 0.0653155 0.0659264 0.0665358 0.0671481 0.0677744 0.068391 0.0689984 0.0696076 0.0702223
0.0714729 0.0727332 0.0739905 0.0752426 0.0764843 0.0772567 0.078022 0.0787883 0.0795562 0.0804143
0.0808248 0.0812355 0.0816465 0.0820583 0.0824615 0.0825187 0.0825759 0.0826331 0.0826902 0.0827473
0.0852572 0.0877516 0.0902308 0.0926522 0.0950442 0.0998043 0.104516 0.109117 0.113606 0.117951
0.124941 0.13184 0.138618 0.145278 0.159206 0.16312 0.167034 0.170947 0.17486 0.178859
0.182677 0.186495 0.190312 0.194129 0.197945 0.205684 0.213427 0.22117 0.228912 0.236654
0.244382 0.252123 0.259863 0.267604 0.275344 0.283064 0.290804 0.298544 0.306284 0.314023
0.321736 0.329475 0.337215 0.344954 0.352693 0.3604 0.368138 0.375876 0.383615 0.391353
0.399054 0.406791 0.414528 0.422266 0.430003 0.437698 0.445434 0.45317 0.460907 0.468643
0.476333 0.484067 0.491802 0.499537 0.507272 0.514957 0.52269 0.530424 0.538157 0.54589
0.55357 0.5613 0.569031 0.576762 0.584493 0 0.00127992 0.00256047 0.00384228 0.00512558
0.00641036 0.00831678 0.0102257 0.0121374 0.0140556 0.0159859 0.0169579 0.017933 0.0189114 0.0198933
0.0208787 0.0218729 0.0228761 0.0238891 0.0249121 0.0259473 0.0263902 0.0268347 0.0272827 0.0277341
0.0278575 0.0280062 0.0281551 0.0283041 0.0284532 0.0286026 0.029146 0.0296937 0.0302486 0.0308122
0.0313968 0.0314717 0.0315465 0.0316212 0.031696 0.031761 0.0319785 0.0321959 0.0324132 0.0326303
0.0328509 0.0329311 0.0330111 0.0330912 0.033171 0.0332401 0.0334508 0.0336606 0.0338694 0.0340749
0.0342867 0.034349 0.0344108 0.0344721 0.0345331 0.0345861 0.0345917 0.0345974 0.0346031 0.0346088
0.0346144 0.0348295 0.03504 0.0352461 0.0354447 0.0356348 0.0356568 0.0356787 0.0357006 0.0357224
0.0357447 0.0358462 0.0359467 0.0360462 0.036147 0.036291 0.0363848 0.036478 0.0365706 0.0366622
0.0367515 0.0368557 0.0369591 0.037062 0.037165 0.0373137 0.0374125 0.0375111 0.0376096 0.037709
0.0378061 0.0380179 0.0382279 0.0384373 0.0386461 0.0388581 0.0390781 0.0392935 0.0395047 0.0397159
0.0399297 0.0401458 0.0403603 0.0405738 0.0407878 0.0410043 0.0412253 0.0414428 0.041659 0.0418756
0.0420931 0.0423119 0.0425292 0.0427464 0.0429639 0.0431827 0.0436277 0.0440731 0.0445216 0.0449736
0.0454335 0.0459122 0.0463788 0.0468375 0.0472992 0.0477745 0.048257 0.0487376 0.0492181 0.0497025
0.0501948 0.0512112 0.0522333 0.0532668 0.0543538 0.0554584 0.0558198 0.0561816 0.0565445 0.056909
0.0572938 0.0580874 0.0588804 0.059673 0.0604695 0.061274 0.0624732 0.0636479 0.0648289 0.0660249
0.0672167 0.0684429 0.0696449 0.0708243 0.0719974 0.0731627 0.0736354 0.0741073 0.0745796 0.0750525
0.0755158 0.0758234 0.0761311 0.0764389 0.076747 0.077063 0.0774551 0.0778474 0.0782401 0.078633
0.0790262 0.0813707 0.083717 0.0860627 0.0883783 0.0906664 0.0951743 0.0997347 0.104203 0.108528
0.112745 0.121054 0.129333 0.13755 0.145595 0.153471 0.161212 0.168954 0.176691 0.184425
0.192157 0.199884 0.207612 0.215337 0.223061 0.230783 0.237744 0.244705 0.251665 0.258624
0.265593 0.266349 0.267104 0.267859 0.268615 0.26937 0.277084 0.284798 0.292513 0.300227
0.307941 0.315648 0.323362 0.331077 0.338791 0.346505 0.354206 0.36192 0.369634 0.377348
0.385062 0.392756 0.40047 0.408183 0.415896 0.42361 0.431299 0.439012 0.446724 0.454437
0.46215 0.469834 0.477546 0.485257 0.492969 0.500681 0.508361 0.516071 0.523782 0.531493
0.539203 0.546878 0.554586 0.562295 0.570004 0.577713 0 0.00127753 0.00255576 0.00383511
0.00511574 0.00639766 0.00829923 0.0102027 0.0121091 0.0140203 0.0159396 0.0169037 0.0178698 0.0188377
0.019808 0.0207804 0.0217542 0.0227329 0.023717 0.0247056 0.025698 0.0266887 0.0276858 0.0286911
0.0296917 0.0307002 0.0307756 0.0308511 0.0309265 0.0310017 0.0310713 0.0319934 0.0328959 0.033778
0.0346389 0.0354973 0.0359453 0.0363909 0.0368345 0.037277 0.0377141 0.0381526 0.0385887 0.039024
0.0394585 0.0398872 0.0403203 0.0407535 0.041187 0.0416208 0.0420553 0.0424914 0.0429265 0.0433624
0.0437993 0.0442381 0.0451162 0.0460028 0.0468959 0.0477966 0.0487222 0.0496693 0.0506087 0.0515416
0.0524813 0.0534305 0.0541603 0.0548955 0.0556328 0.0563719 0.0575061 0.0576619 0.0578178 0.0579738
0.0581298 0.058286 0.0592698 0.060253 0.0612366 0.06222 0.0632022 0.0652023 0.0671892 0.0691655
0.0711514 0.0731348 0.0750933 0.077078 0.0790775 0.0810809 0.0830862 0.0870983 0.0911274 0.0951248
0.0990773 0.103024 0.105889 0.10876 0.111638 0.114509 0.117891 0.122847 0.127774 0.132675
0.137548 0.142395 0.150105 0.157818 0.165528 0.173235 0.180941 0.188634 0.196335 0.204034
0.211732 0.219428 0.227115 0.234808 0.2425 0.250191 0.257881 0.265564 0.273251 0.280938
0.288624 0.296309 0.303988 0.31167 0.319352 0.327033 0.334714 0.342389 0.350068 0.357745
0.365422 0.373098 0.380771 0.388445 0.396119 0.403792 0.411464 0.419133 0.426804 0.434473
0.442143 0.449811 0.457477 0.465144 0.472811 0.480477 0.488142 0.495805 0.503469 0.511132
0.518794 0.526456 0.534116 0.541776 0.549436 0.557095 0.564754 0 0.00127409 0.00254879
0.00382395 0.00510034 0.00637795 0.00827385 0.0101719 0.0120722 0.0139755 0.015883 0.0177923 0.0197068
0.0216262 0.0235503 0.0254823 0.0264532 0.0274211 0.028384 0.029342 0.0299616 0.0309795 0.0319899
0.0329897 0.0339794 0.0349573 0.0358663 0.0367719 0.0376734 0.0385719 0.0394615 0.0403521 0.0412412
0.0421292 0.0430162 0.0439025 0.0456797 0.0474741 0.0492831 0.0511018 0.0529369 0.0538005 0.0546654
0.0555324 0.0564014 0.0577486 0.0586386 0.0595303 0.0604239 0.0613194 0.0622162 0.0640918 0.0659703
0.0678515 0.0697354 0.0716213 0.0735168 0.0754045 0.0772931 0.0791832 0.0810743 0.0848703 0.0886654
0.092465 0.0962691 0.100087 0.107786 0.115488 0.123145 0.130764 0.138399 0.146048 0.153694
0.161339 0.168982 0.176624 0.18427 0.191912 0.199553 0.207193 0.214831 0.222473 0.230111
0.237748 0.245384 0.253019 0.260658 0.268293 0.275928 0.283561 0.291194 0.29883 0.306463
0.314096 0.321727 0.329358 0.336991 0.344622 0.352252 0.359882 0.36751 0.375142 0.38277
0.390398 0.398026 0.405652 0.413281 0.420908 0.428534 0.43616 0.443784 0.451411 0.459036
0.46666 0.474283 0.481906 0.489531 0.497154 0.504776 0.512398 0.520018 0.527641 0.535261
0.542882 0.550501 0.558121 0 0.00127141 0.00254321 0.00381553 0.00508845 0.00636198 0.0101414
0.0139323 0.0177224 0.0215091 0.0252997 0.0257906 0.0262803 0.0267692 0.0272571 0.0276866 0.0290761
0.0304604 0.0318395 0.0332135 0.034585 0.0364261 0.0382577 0.0400725 0.0418832 0.0436888 0.0455
0.0473086 0.0491186 0.0509373 0.0527673 0.0546035 0.0564412 0.0582816 0.060125 0.061971 0.0656731
0.0693892 0.0731212 0.0768682 0.0806189 0.0843892 0.0881578 0.0919266 0.0956974 0.0994706 0.107
0.114529 0.122062 0.12961 0.137173 0.144752 0.152327 0.159904 0.167482 0.175058 0.182639