# vtk DataFile Version 2.0
tracks
ASCII
DATASET POLYDATA
POINTS 2585 float
-1.001 -0.05 0.0011 -0.900789 -0.0500216 0.00109731 -0.800577 -0.0500432 0.00109463 -0.700366 -0.0500647
0.00109196 -0.600155 -0.0500862 0.00108929 -0.499943 -0.0501076 0.00108663 -0.424945 -0.0501115 0.00107892
-0.349947 -0.0501526 0.0010688 -0.274949 -0.0501932 0.00105877 -0.19995 -0.0502334 0.00104883 -0.124952
-0.0502733 0.00103899 -0.0499538 -0.0502828 0.00103923 0.0250446 -0.0502916 0.00104799 0.100043 -0.0503006
0.00105682 0.175041 -0.0503095 0.00106573 0.25004 -0.0503186 0.00107471 0.400037 -0.0503125 0.00109084
0.550035 -0.0503107 0.0011051 0.700032 -0.0503089 0.00111954 0.85003 -0.0503071 0.00113418 1.00003
-0.0503052 0.001149 1.15003 -0.050316 0.0011562 1.30002 -0.0503217 0.00116071 1.45002 -0.0503274
0.00116523 1.60002 -0.0503332 0.00116978 1.75002 -0.0503389 0.00117433 1.90002 -0.0503475 0.00117719
2.05002 -0.050354 0.00117915 2.20001 -0.0503605 0.00118112 2.35001 -0.0503671 0.00118309 2.50001
-0.0503736 0.00118506 2.65001 -0.0503816 0.0011861 2.80001 -0.0503897 0.00118682 2.95001 -0.0503978
0.00118754 3.10001 -0.0504059 0.00118826 3.25001 -0.0504141 0.00118898 3.40001 -0.0504219 0.00118925
3.55001 -0.0504308 0.00118986 3.70001 -0.0504396 0.00119046 3.85001 -0.0504485 0.00119106 4.00001
-0.0504574 0.00119167 4.15 -0.0504651 0.00119174 4.3 -0.0504748 0.00119244 4.45 -0.0504844
0.00119313 4.6 -0.050494 0.00119382 4.75 -0.0505037 0.00119452 4.9 -0.0505113 0.00119451
5.05 -0.0505215 0.00119536 5.2 -0.0505316 0.00119621 5.35 -0.0505417 0.00119707 5.5
-0.0505519 0.00119792 5.65 -0.0505594 0.00119787 5.8 -0.0505699 0.00119888 5.95 -0.0505803
0.00119988 6.1 -0.0505908 0.00120089 6.25 -0.0506013 0.0012019 6.4 -0.0506087 0.00120183
6.55 -0.0506194 0.00120297 6.7 -0.05063 0.0012041 6.85 -0.0506407 0.00120524 7
-0.0506514 0.00120638 7.15 -0.0506588 0.00120629 7.3 -0.0506696 0.00120754 7.45 -0.0506804
0.00120878 7.6 -0.0506912 0.00121003 7.75 -0.0507021 0.00121127 7.9 -0.0507094 0.00121117
8.05 -0.0507203 0.0012125 8.2 -0.0507312 0.00121383 8.35 -0.0507422 0.00121516 8.5
-0.0507531 0.0012165 8.65 -0.0507604 0.00121639 8.8 -0.0507714 0.00121779 8.95 -0.0507823
0.0012192 9.1 -0.0507934 0.00122061 9.25 -0.0508044 0.00122201 9.4 -0.0508116 0.00122189
9.55 -0.0508686 0.00122403 9.7 -0.0509769 0.00122693 9.85 -0.0511364 0.00123058 10
-0.0513472 0.00123498 -1.001 -0.05 0.0537316 -0.900807 -0.0501067 0.0535763 -0.800614 -0.0502138
0.0533937 -0.700421 -0.0503443 0.0531774 -0.600229 -0.050506 0.0529254 -0.500035 -0.0506987 0.0526377
-0.425004 -0.0509478 0.052415 -0.349973 -0.0512862 0.0521254 -0.274943 -0.0516721 0.0518567 -0.199912
-0.0520917 0.0516304 -0.124879 -0.0524956 0.0514867 -0.0498864 -0.052763 0.0515238 0.0251064 -0.0529841
0.05169 0.100099 -0.0532004 0.0519249 0.175092 -0.053426 0.0522081 0.250087 -0.0536467 0.0525263
0.400077 -0.0540341 0.0531634 0.550067 -0.0544195 0.0536793 0.700057 -0.0547635 0.0541463 0.850047
-0.0550661 0.0545639 1.00003 -0.0553353 0.0549317 1.1469 -0.0557049 0.0552102 1.29377 -0.0560428
0.0554698 1.44063 -0.056378 0.0556956 1.5875 -0.0567104 0.0558877 1.70481 -0.0569738 0.056014
1.71385 -0.0569948 0.0560224 1.72289 -0.057016 0.0560308 1.73194 -0.0570373 0.056039 1.74098
-0.0570586 0.0560472 1.75002 -0.0570801 0.0560552 1.90002 -0.057438 0.0561881 2.05002 -0.0577914
0.0563038 2.20001 -0.0581411 0.0564018 2.35001 -0.0584868 0.0564822 2.50001 -0.0588287 0.056545
2.65001 -0.0591758 0.0565966 2.80001 -0.0595225 0.0566416 2.95001 -0.0598684 0.0566789 3.10001
-0.0602135 0.0567085 3.25001 -0.0605578 0.0567305 3.40001 -0.0609029 0.0567473 3.55001 -0.0612495
0.0567636 3.70001 -0.0615946 0.0567778 3.85001 -0.0619382 0.0567899 4.00001 -0.0622803 0.0568001
4.15 -0.0626201 0.0568077 4.3 -0.0629637 0.0568165 4.45 -0.0633059 0.0568245 4.6
-0.0636466 0.0568318 4.75 -0.0639858 0.0568383 4.9 -0.06432 0.0568425 5.05 -0.0646597
0.0568486 5.2 -0.064998 0.0568545 5.35 -0.065335 0.0568599 5.5 -0.0656705 0.056865
5.65 -0.0659992 0.0568674 5.8 -0.0663344 0.0568724 5.95 -0.0666684 0.0568772 6.1
-0.067001 0.0568818 6.25 -0.0673325 0.0568862 6.4 -0.0676558 0.0568876 6.55 -0.0679864
0.056892 6.7 -0.0683158 0.0568963 6.85 -0.0686439 0.0569005 7 -0.0689709 0.0569045
7.15 -0.0692889 0.0569052 7.3 -0.0696148 0.0569093 7.45 -0.0699394 0.0569133 7.6
-0.0702629 0.0569172 7.75 -0.0705851 0.056921 7.9 -0.0708979 0.0569213 8.05 -0.0712189
0.0569252 8.2 -0.0715388 0.0569291 8.35 -0.0718574 0.056933 8.5 -0.0721749 0.0569369
8.65 -0.0724825 0.0569371 8.8 -0.0727986 0.056941 8.95 -0.0731135 0.0569449 9.1
-0.0734272 0.0569486 9.25 -0.0737397 0.0569523 9.4 -0.0740421 0.0569521 9.55 -0.0743535
0.0569558 9.7 -0.0746645 0.0569595 9.85 -0.0749749 0.0569632 10 -0.0752848 0.0569668
-1.001 -0.05 0.106363 -0.900818 -0.0500786 0.106138 -0.800636 -0.0501551 0.105865 -0.700455
-0.0502583 0.105546 -0.600274 -0.0504319 0.105003 -0.50009 -0.0506756 0.10424 -0.424996 -0.0509636
0.103654 -0.349901 -0.0513131 0.103048 -0.274807 -0.051667 0.102511 -0.199711 -0.0519663 0.102081
-0.124607 -0.0523097 0.10198 -0.0496047 -0.0525586 0.102093 0.0253974 -0.0527525 0.102324 0.100399
-0.0529334 0.102637 0.175401 -0.0531347 0.103035 0.250411 -0.0533561 0.103518 0.400346 -0.0537638
0.104521 0.550283 -0.0541704 0.105396 0.70022 -0.054538 0.106182 0.850157 -0.0548747 0.106801
1.00009 -0.0551802 0.107253 1.15007 -0.0556212 0.107519 1.30006 -0.0559183 0.107815 1.45005
-0.0561644 0.108091 1.60003 -0.0564044 0.108335 1.75002 -0.0566385 0.108545 1.90002 -0.0569464
0.10869 2.05002 -0.057191 0.108845 2.20001 -0.0574298 0.108984 2.35001 -0.057666 0.109105
2.50001 -0.0578997 0.10921 2.65001 -0.0581898 0.109279 2.80001 -0.058438 0.109346 2.95001
-0.058685 0.109407 3.10001 -0.0589313 0.109459 3.25001 -0.0591769 0.109504 3.40001 -0.0594654
0.109538 3.55001 -0.0597175 0.109572 3.70001 -0.0599678 0.109603 3.85001 -0.0602165 0.109632
4 -0.0604636 0.109659 4.15 -0.060746 0.109685 4.3 -0.0609981 0.109706 4.45
-0.0612484 0.109727 4.6 -0.0614971 0.109746 4.75 -0.0617442 0.109765 4.9 -0.0620201
0.109788 5.05 -0.0622703 0.109803 5.2 -0.0625188 0.109817 5.35 -0.0627659 0.109832
5.5 -0.0630115 0.109845 5.65 -0.0632809 0.109866 5.8 -0.0635285 0.109877 5.95
-0.0637746 0.109887 6.1 -0.0640194 0.109898 6.25 -0.0642629 0.109908 6.4 -0.0645263
0.109927 6.55 -0.0647709 0.109935 6.7 -0.0650141 0.109943 6.85 -0.0652561 0.10995
7 -0.0654969 0.109957 7.15 -0.0657543 0.109976 7.3 -0.0659958 0.109981 7.45
-0.0662358 0.109986 7.6 -0.0664747 0.109992 7.75 -0.0667124 0.109997 7.9 -0.0669641
0.110014 8.05 -0.0672021 0.110018 8.2 -0.0674388 0.110022 8.35 -0.0676743 0.110025
8.5 -0.0679087 0.110029 8.65 -0.0681548 0.110046 8.8 -0.0683892 0.110049 8.95
-0.0686222 0.110052 9.1 -0.0688541 0.110054 9.25 -0.0690847 0.110056 9.4 -0.069325
0.110073 9.55 -0.069556 0.110074 9.7 -0.0697863 0.110075 9.85 -0.0700161 0.110076
10 -0.0702454 0.110077 -1.001 -0.05 0.158995 -0.900796 -0.0500891 0.15877 -0.800593
-0.0501942 0.158423 -0.700392 -0.0503566 0.157686 -0.600196 -0.0505893 0.156473 -0.499992 -0.0508838
0.15463 -0.42472 -0.0514921 0.153026 -0.349436 -0.0519611 0.152105 -0.274149 -0.0523595 0.151541
-0.198859 -0.052756 0.151248 -0.123699 -0.0530744 0.151301 -0.0487805 -0.0531977 0.151465 0.0261371
-0.053276 0.151947 0.101053 -0.0534154 0.152655 0.175967 -0.0535816 0.153456 0.250944 -0.053735
0.154287 0.400783 -0.0539454 0.155713 0.550624 -0.0544515 0.156894 0.700468 -0.0549232 0.157651
0.850313 -0.0553209 0.158251 1.00014 -0.0556873 0.158684 1.15012 -0.0561899 0.158931 1.30009
-0.0565481 0.15921 1.45007 -0.0568132 0.159479 1.60005 -0.0570015 0.159733 1.75002 -0.0571838
0.159955 1.90002 -0.057441 0.16011 2.05002 -0.0576344 0.160276 2.20002 -0.0578157 0.160428
2.35001 -0.0579882 0.160564 2.50001 -0.0581584 0.160684 2.65001 -0.0583854 0.160767 2.80001
-0.0585703 0.16085 2.95001 -0.058753 0.160925 3.10001 -0.0589341 0.160993 3.25001 -0.0591145
0.161054 3.40001 -0.059338 0.161104 3.55001 -0.0595252 0.161153 3.70001 -0.0597096 0.1612
3.85001 -0.0598918 0.161246 4 -0.0600725 0.16129 4.15 -0.0602883 0.161332 4.3
-0.0604741 0.16137 4.45 -0.0606573 0.161407 4.6 -0.0608383 0.161444 4.75 -0.0610178
0.16148 4.9 -0.0612258 0.161519 5.05 -0.0614084 0.161551 5.2 -0.0615887 0.161583
5.35 -0.0617671 0.161614 5.5 -0.0619441 0.161645 5.65 -0.0621446 0.161683 5.8
-0.0623236 0.161711 5.95 -0.0625007 0.161738 6.1 -0.062676 0.161766 6.25 -0.0628501
0.161793 6.4 -0.0630436 0.161829 6.55 -0.0632189 0.161854 6.7 -0.0633923 0.161879
6.85 -0.0635642 0.161903 7 -0.0637349 0.161928 7.15 -0.0639218 0.161963 7.3
-0.0640931 0.161985 7.45 -0.0642628 0.162008 7.6 -0.064431 0.16203 7.75 -0.0645981
0.162052 7.9 -0.0647787 0.162086 8.05 -0.064946 0.162107 8.2 -0.0651119 0.162127
8.35 -0.0652764 0.162148 8.5 -0.0654398 0.162168 8.65 -0.0656144 0.162202 8.8
-0.0657777 0.162222 8.95 -0.0659394 0.162241 9.1 -0.0660997 0.16226 9.25 -0.0662589
0.162279 9.4 -0.0664272 0.162312 9.55 -0.0665866 0.16233 9.7 -0.0667451 0.162347
9.85 -0.0669029 0.162364 10 -0.0670603 0.162381 -1.001 -0.05 0.211626 -0.947627
-0.0500809 0.211469 -0.894254 -0.0501663 0.211278 -0.840881 -0.0502564 0.211053 -0.787508 -0.050391
0.210763 -0.724273 -0.0506354 0.210284 -0.679404 -0.0509136 0.209633 -0.634539 -0.051249 0.208753
-0.589678 -0.0515884 0.207736 -0.544819 -0.0519328 0.206582 -0.499928 -0.0522836 0.205287 -0.469506
-0.0525775 0.204235 -0.439085 -0.0528814 0.20312 -0.40866 -0.05317 0.202132 -0.378231 -0.0534442
0.201265 -0.330145 -0.0538622 0.200029 -0.289076 -0.0542034 0.199119 -0.248003 -0.0545442 0.198423
-0.206925 -0.0548892 0.198043 -0.165846 -0.0551988 0.197952 -0.124884 -0.0554332 0.198126 -0.0496122
-0.0557389 0.198839 0.0256573 -0.0558755 0.199791 0.100922 -0.0559836 0.201075 0.176185 -0.0561249
0.202439 0.251487 -0.0562595 0.203595 0.251793 -0.05626 0.203599 0.252098 -0.0562604 0.203603
0.252404 -0.0562609 0.203607 0.252709 -0.0562614 0.203611 0.253016 -0.0562618 0.203615 0.327467
-0.056374 0.204592 0.40192 -0.0564881 0.205443 0.476373 -0.0566044 0.206166 0.550828 -0.0567493
[...]
POINT_DATA 2585
FIELD attributes 4
age 1 2585 float
0 0.00501121 0.0100224 0.0150336 0.0200448 0.025056 0.0288056 0.0325533 0.036301 0.0400487 0.0437965
0.0475449 0.0512905 0.0550361 0.0587817 0.0625272 0.0700239 0.0775229 0.0850219 0.0925208 0.10002
0.10752 0.115019 0.122519 0.130019 0.137519 0.145019 0.152519 0.160019 0.167518 0.175018
0.182518 0.190018 0.197517 0.205017 0.212517 0.220017 0.227516 0.235016 0.242516 0.250015
0.257515 0.265015 0.272515 0.280015 0.287514 0.295014 0.302514 0.310014 0.317513 0.325013
0.332513 0.340013 0.347512 0.355012 0.362512 0.370012 0.377512 0.385011 0.392511 0.400011
0.407511 0.415011 0.42251 0.43001 0.43751 0.44501 0.45251 0.460009 0.467509 0.475009
0.482509 0.490009 0.497508 0.505008 0.512508 0.520008 0.527507 0.535005 0.542503 0.55
0 0.00502603 0.0100533 0.0150747 0.0200879 0.0250929 0.028832 0.0325651 0.0362915 0.040011
0.0437244 0.0474305 0.0511297 0.0548271 0.0585244 0.0622235 0.0696341 0.0770701 0.0845209 0.0919865
0.0994667 0.106804 0.114143 0.121483 0.128824 0.134689 0.135141 0.135593 0.136045 0.136497
0.136949 0.14445 0.15195 0.159449 0.166948 0.174446 0.181945 0.189442 0.196939 0.204436
0.211933 0.219431 0.226927 0.234424 0.241921 0.249419 0.256917 0.264414 0.271911 0.279409
0.286907 0.294405 0.301903 0.309401 0.316899 0.324398 0.331897 0.339395 0.346893 0.354392
0.361891 0.36939 0.376889 0.384388 0.391887 0.399386 0.406886 0.414386 0.421885 0.429385
0.436884 0.444385 0.451885 0.459385 0.466885 0.474385 0.481886 0.489387 0.496887 0.504388
0.511889 0.51939 0.526891 0.534392 0.541893 0.549394 0 0.00502802 0.0100578 0.0150819
0.0200994 0.0251105 0.0288575 0.0325974 0.0363281 0.0400539 0.04377 0.0474746 0.0511735 0.0548713
0.0585681 0.0622645 0.0696628 0.0770882 0.0845317 0.0919973 0.0994846 0.106988 0.114492 0.121999
0.129508 0.137018 0.144533 0.152041 0.15955 0.167057 0.174564 0.182077 0.189583 0.197088
0.204593 0.212098 0.21961 0.227115 0.23462 0.242125 0.24963 0.257142 0.264648 0.272153
0.279659 0.287164 0.294677 0.302183 0.309689 0.317194 0.3247 0.332214 0.33972 0.347226
0.354732 0.362238 0.369752 0.377259 0.384765 0.392272 0.399778 0.407293 0.414799 0.422306
0.429813 0.437321 0.444835 0.452342 0.45985 0.467357 0.474865 0.48238 0.489887 0.497395
0.504903 0.512411 0.519927 0.527435 0.534943 0.542451 0.549959 0 0.00503013 0.0100663
0.0150996 0.020127 0.0251496 0.0289153 0.0326692 0.0364111 0.0401426 0.0438573 0.0475522 0.0512417
0.0549301 0.0586178 0.062309 0.0696961 0.0771196 0.0845736 0.092044 0.0995357 0.107048 0.114561
0.122079 0.129602 0.137125 0.144654 0.152177 0.1597 0.167223 0.174745 0.182273 0.189794
0.197314 0.204835 0.212355 0.219882 0.227402 0.234922 0.242442 0.249962 0.25749 0.26501
0.272531 0.280051 0.287572 0.2951 0.302621 0.310142 0.317663 0.325184 0.332712 0.340234
0.347755 0.355276 0.362798 0.370327 0.377848 0.38537 0.392892 0.400414 0.407943 0.415465
0.422987 0.43051 0.438032 0.445562 0.453084 0.460607 0.46813 0.475652 0.483182 0.490705
0.498228 0.505751 0.513275 0.520805 0.528329 0.535852 0.543375 0.550899 0 0.00268301
0.0053677 0.00805408 0.0107398 0.0139197 0.0161746 0.018429 0.0206828 0.0229356 0.0251894 0.0267145
0.0282375 0.0297576 0.0312747 0.0336666 0.0357017 0.0377311 0.039755 0.0417733 0.0437801 0.0474588
0.0511388 0.0548202 0.0585081 0.0622089 0.0622239 0.062239 0.062254 0.0622691 0.0622842 0.0659517
0.0696293 0.0733168 0.0770146 0.0807224 0.0813161 0.0819099 0.0825036 0.0830975 0.0836767 0.0868323
0.0899905 0.0931512 0.0963145 0.0994798 0.107 0.114522 0.122049 0.129581 0.137117 0.14466
0.152197 0.159734 0.16727 0.174807 0.182349 0.189884 0.197419 0.204954 0.212489 0.22003
0.227565 0.2351 0.242634 0.250169 0.257711 0.265246 0.272781 0.280316 0.287851 0.295394
0.302929 0.310465 0.318 0.325536 0.333079 0.340615 0.348151 0.355687 0.363223 0.370766
0.378303 0.385839 0.393375 0.400912 0.408456 0.415992 0.423529 0.431066 0.438603 0.446147
0.453684 0.461222 0.468759 0.476296 0.483841 0.491378 0.498916 0.506454 0.513991 0.521537
0.529075 0.536613 0.544151 0.551689 0 0.00126445 0.00252928 0.00379479 0.00506111 0.00632824
0.0101158 0.0139117 0.0177192 0.0215334 0.0253299 0.0269083 0.0284766 0.030038 0.0315923 0.0329795
0.03331 0.0336403 0.0339701 0.0342998 0.0346293 0.0364576 0.0382787 0.040091 0.0418979 0.0436955
0.045496 0.0473011 0.0491182 0.0509403 0.0527665 0.0529193 0.0530721 0.0532249 0.0533777 0.053538
0.0552151 0.0568949 0.0585775 0.0602629 0.061951 0.0656469 0.0693598 0.0730907 0.0768323 0.0805828
0.0843463 0.0881089 0.0918723 0.0956383 0.0994067 0.106942 0.11448 0.122022 0.129568 0.137118
0.144683 0.152236 0.159789 0.167341 0.174894 0.182454 0.190005 0.197557 0.205108 0.212659
0.220217 0.227768 0.235319 0.24287 0.250421 0.257979 0.26553 0.273081 0.280633 0.288184
0.295743 0.303294 0.310846 0.318398 0.325949 0.333509 0.341061 0.348612 0.356165 0.363717
0.371276 0.378829 0.386381 0.393933 0.401486 0.409046 0.416598 0.424151 0.431704 0.439256
0.446817 0.45437 0.461923 0.469476 0.477029 0.48459 0.492143 0.499696 0.507249 0.514803
0.522364 0.529917 0.537471 0.545024 0.552578 0 0.00126546 0.00253143 0.00379791 0.00506491
0.00633245 0.00822685 0.0101236 0.0120229 0.013925 0.0158292 0.0177466 0.019669 0.0215923 0.0235188
0.0254577 0.0264289 0.0273974 0.0283615 0.0293212 0.0302807 0.0307545 0.0312267 0.0316968 0.0321649
0.0326762 0.0331336 0.0335889 0.0340423 0.0344937 0.0349425 0.0358529 0.03676 0.0376631 0.0385619
0.0394518 0.040341 0.0412287 0.0421156 0.0430023 0.0438895 0.0452411 0.0465994 0.0479648 0.0493091
0.0528841 0.0547129 0.0565556 0.0584095 0.0602701 0.0621315 0.0640028 0.0658752 0.0677497 0.0696269
0.0715081 0.0733967 0.0752798 0.077159 0.07904 0.0809262 0.0840698 0.0872177 0.0903672 0.0935183
0.0961783 0.0969263 0.0976744 0.0984226 0.099171 0.0999195 0.107512 0.115107 0.122706 0.130309
0.137916 0.145548 0.153155 0.160758 0.16836 0.175961 0.183582 0.191182 0.198779 0.206377
0.213975 0.221591 0.229188 0.236784 0.24438 0.251977 0.259592 0.267188 0.274783 0.282379
0.289976 0.297589 0.305185 0.31278 0.320375 0.327971 0.335583 0.343178 0.350773 0.358368
0.365964 0.373574 0.381169 0.388764 0.396358 0.403954 0.411563 0.419157 0.426752 0.434346
0.441941 0.449548 0.457143 0.464737 0.472331 0.479925 0.487532 0.495126 0.502719 0.510313
0.517907 0.525512 0.533106 0.540699 0.548292 0.555886 0 0.00126279 0.00252626 0.00379076
0.00505645 0.00632331 0.00823335 0.0101454 0.0120612 0.0139803 0.0159048 0.0178221 0.0197524 0.0216955
0.0236514 0.0256297 0.0266297 0.0276306 0.0286318 0.0296322 0.0306446 0.0308911 0.0311376 0.0313838
0.031628 0.0318175 0.0325691 0.0333082 0.0340343 0.0347465 0.0354507 0.0358977 0.036343 0.0367867
0.037229 0.0376653 0.0381026 0.0385372 0.0389693 0.0394007 0.0398297 0.0402616 0.0406935 0.0411255
0.0415581 0.0419932 0.0424285 0.0428633 0.0432983 0.0437343 0.0441726 0.0450491 0.045935 0.0468312
0.0477387 0.0486632 0.0493999 0.0501358 0.0508739 0.0516153 0.0525253 0.0526898 0.0528544 0.0530192
0.053184 0.053349 0.0543021 0.0552538 0.0562077 0.0571646 0.0581237 0.0590918 0.0600591 0.0610274
0.0619988 0.0629718 0.0649392 0.0669016 0.0688588 0.0708204 0.0727653 0.0746966 0.0766424 0.0786031
0.0805683 0.0825384 0.0864988 0.0904509 0.0943775 0.098288 0.102202 0.110029 0.117823 0.125548
0.133213 0.140881 0.14858 0.156256 0.163928 0.171595 0.179261 0.186942 0.194606 0.202268
0.209928 0.217588 0.225262 0.232921 0.240579 0.248235 0.255892 0.263561 0.271218 0.278873
0.286527 0.294181 0.301847 0.309501 0.317154 0.324806 0.332457 0.34012 0.347772 0.355422
0.363072 0.370722 0.378381 0.386031 0.39368 0.401328 0.408976 0.416632 0.424279 0.431926
0.439572 0.447218 0.454871 0.462517 0.470162 0.477806 0.48545 0.493101 0.500745 0.508387
0.516029 0.523671 0.531319 0.53896 0.546602 0.554242 0.561883 0 0.00126442 0.00252949
0.00379521 0.00506158 0.00632919 0.00824626 0.0101657 0.0120885 0.0140176 0.0159588 0.0169289 0.0179019
0.018878 0.0198573 0.0208398 0.0218275 0.0228233 0.023828 0.0248417 0.0258659 0.0263835 0.0269029
0.027426 0.0279527 0.0284857 0.0287757 0.0290671 0.0293608 0.0296572 0.0297551 0.0300555 0.0303572
0.0306598 0.0309622 0.0312729 0.0313691 0.0314653 0.0315617 0.0316583 0.0317289 0.0317643 0.0317996
0.0318349 0.0318702 0.0319038 0.0320674 0.0322309 0.0323942 0.0325574 0.0327218 0.0329005 0.0330788
0.0332565 0.0334314 0.0335605 0.0336662 0.0337714 0.0338759 0.0339795 0.0340846 0.0341948 0.0343034
0.0344106 0.0345168 0.0346036 0.0346583 0.0347127 0.0347668 0.0348206 0.0348732 0.0349709 0.0350682
0.035165 0.0352614 0.0353557 0.0354778 0.0355985 0.0357177 0.0358359 0.0360285 0.036129 0.036229
0.0363287 0.0364283 0.036518 0.0366049 0.0366919 0.0367789 0.0368659 0.037026 0.0371473 0.0372684
0.0373893 0.0375101 0.0376292 0.0378479 0.0380651 0.0382823 0.0385002 0.0387145 0.0389325 0.0391499
0.0393677 0.0395859 0.039804 0.040025 0.0402444 0.0404639 0.0406838 0.0409044 0.0411248 0.0413448
0.0415651 0.0417863 0.0420098 0.0422347 0.0424577 0.0426808 0.0429047 0.0431295 0.0434629 0.0437979
0.0441385 0.0444849 0.0446447 0.0448084 0.0449725 0.0451369 0.0453017 0.0454678 0.0459565 0.0464373
0.0469184 0.0473946 0.0478925 0.048411 0.0489191 0.0494283 0.0499425 0.0504641 0.0505248 0.0505856
0.0506465 0.0507076 0.0507675 0.0517863 0.0528476 0.0539546 0.0550229 0.0561042 0.0573106 0.0584953
0.0596823 0.0608753 0.0620681 0.0624443 0.0628197 0.0631949 0.0635704 0.0639899 0.0648244 0.0656503
0.0664745 0.0673012 0.0681265 0.0681861 0.0682457 0.0683052 0.0683646 0.0684237 0.069566 0.0706938
0.0718196 0.0729433 0.0740603 0.0752147 0.0763919 0.0775728 0.0787551 0.0799401 0.0812978 0.0826563
0.0840203 0.0853892 0.087073 0.0879544 0.0888314 0.0897041 0.0905725 0.091436 0.0959496 0.100438
0.104853 0.109176 0.113368 0.121546 0.129662 0.137705 0.145677 0.153564 0.161324 0.169085
0.176843 0.184598 0.19235 0.200099 0.207848 0.215595 0.223339 0.231082 0.236753 0.242423
0.248093 0.253762 0.259506 0.261559 0.263612 0.265665 0.267718 0.269771 0.277504 0.285239
0.292975 0.30071 0.308446 0.316171 0.323906 0.331641 0.339376 0.347111 0.35483 0.362564
0.370299 0.378034 0.385768 0.39348 0.401214 0.408948 0.416682 0.424416 0.432122 0.439855
0.447588 0.455321 0.463054 0.470754 0.478486 0.486218 0.49395 0.501682 0.509377 0.517108
0.524838 0.532569 0.540299 0.547988 0.555717 0.563445 0.571174 0.578903 0 0.00125412
0.00250918 0.00376555 0.00502337 0.00628276 0.00821409 0.0101481 0.0120849 0.0140288 0.015987 0.0169597
0.0179363 0.0189169 0.0199015 0.0208904 0.0218848 0.0228901 0.023907 0.0249357 0.0259774 0.026506
0.0270379 0.0275764 0.0281218 0.0286761 0.0292416 0.0298149 0.0304011 0.0310013 0.031628 0.0319469
0.0322657 0.0325852 0.0329058 0.0332408 0.0333116 0.0333823 0.0334531 0.0335239 0.0335817 0.0336582
0.0337333 0.0338075 0.0338811 0.033943 0.0341147 0.0342831 0.0344483 0.0346099 0.0347769 0.0349193
0.035059 0.035196 0.0353298 0.0354489 0.0355694 0.0356894 0.0358089 0.0359267 0.0360387 0.0361558
0.0362699 0.036381 0.0364916 0.0366375 0.0367448 0.036852 0.036959 0.0370657 0.0371637 0.0373606
0.0375576 0.037758 0.0379617 0.0383793 0.0386153 0.0388518 0.0390862 0.0393184 0.0395457 0.04001
0.0404678 0.0409217 0.0413723 0.0418176 0.0422746 0.0427163 0.0431614 0.0436095 0.0440605 0.0445332
0.0449999 0.0454782 0.0459611 0.0464519 0.0473293 0.0482274 0.0491399 0.0500257 0.0517799 0.0529013
0.0540254 0.0551734 0.0563416 0.0575421 0.0587993 0.0600293 0.0612428 0.0624656 0.0636948 0.0645916
0.0654753 0.0663584 0.0672359 0.0684125 0.0687082 0.069004 0.0693 0.0695966 0.0698936 0.0706541
0.0714162 0.0721778 0.0729406 0.0738769 0.0743228 0.0747684 0.0752139 0.0756581 0.0761004 0.077341
0.0785861 0.0798388 0.0810924 0.0823454 0.0848334 0.087325 0.0897866 0.0922049 0.0945983 0.0994276
0.10421 0.108854 0.11336 0.117715 0.121599 0.125468 0.129322 0.13316 0.138108 0.142307
0.14646 0.150566 0.154628 0.158644 0.166404 0.174171 0.181938 0.189703 0.197467 0.205211
0.212973 0.220735 0.228497 0.236258 0.243991 0.25175 0.25951 0.267269 0.275029 0.282753
0.290512 0.29827 0.306028 0.313787 0.321504 0.329262 0.337019 0.344776 0.352534 0.360245
0.368001 0.375757 0.383513 0.39127 0.398974 0.406729 0.414484 0.422239 0.429994 0.437693
0.445446 0.4532 0.460953 0.468707 0.4764 0.484152 0.491903 0.499655 0.507407 0.515096
0.522846 0.530596 0.538345 0.546095 0.553778 0.561524 0.569271 0.577018 0.584766 0
0.00125904 0.00251875 0.00377915 0.00504097 0.00630443 0.00823313 0.0101648 0.0120993 0.0140413 0.0159974
0.0169703 0.0179473 0.0189284 0.0199137 0.0209033 0.0218977 0.0229028 0.0239196 0.0249481 0.0259896
0.0265187 0.0270505 0.0275882 0.0281325 0.0286862 0.0292491 0.0298198 0.0303999 0.0309926 0.0316148
0.031931 0.0322478 0.0325649 0.0328821 0.0332118 0.0334493 0.0336855 0.0339197 0.0341479 0.0342446
0.0343486 0.0344514 0.0345532 0.0346539 0.0347572 0.0349582 0.0351523 0.0353399 0.0355216 0.0356761
0.0357552 0.0358339 0.0359119 0.0359891 0.0360646 0.0360676 0.0360706 0.0360736 0.0360766 0.0360796
0.0362223 0.0363637 0.0365037 0.0366424 0.0368447 0.0369206 0.0369965 0.0370723 0.037148 0.0372198
0.0376774 0.0381404 0.0386169 0.0391011 0.0395151 0.0399765 0.0404271 0.0408762 0.0413275 0.0417871
0.042263 0.0427291 0.0431917 0.0436567 0.0441311 0.044623 0.0451055 0.0455826 0.0460648 0.0465613
0.0475948 0.0486509 0.0497193 0.0508075 0.0515857 0.0516551 0.0517245 0.0517938 0.051863 0.0519323
0.0530624 0.0542177 0.0554006 0.0566066 0.0578325 0.0591087 0.0603604 0.0615911 0.062838 0.0640787
0.0647026 0.065316 0.0659267 0.0665361 0.0671484 0.0677749 0.0683916 0.0689991 0.0696077 0.0702225
0.0714734 0.0727345 0.0739924 0.0752454 0.0764879 0.0772509 0.0780062 0.0787631 0.0795218 0.0803716
0.0808472 0.081323 0.081799 0.0822762 0.0827543 0.0852659 0.0877629 0.0902448 0.0926677 0.0950612
0.0998242 0.104537 0.109139 0.11363 0.117978 0.124897 0.131726 0.138438 0.145034 0.15924
0.162801 0.166362 0.169921 0.17348 0.177112 0.181287 0.185461 0.189634 0.193808 0.19798
0.205719 0.213463 0.221206 0.228948 0.23669 0.244418 0.252159 0.2599 0.26764 0.275381
0.283101 0.290841 0.298581 0.306321 0.314061 0.321773 0.329513 0.337252 0.344991 0.35273
0.360437 0.368175 0.375914 0.383652 0.391391 0.399091 0.406828 0.414566 0.422303 0.430041
0.437736 0.445472 0.453208 0.460945 0.468681 0.476371 0.484105 0.49184 0.499575 0.50731
0.514995 0.522728 0.530462 0.538195 0.545928 0.553608 0.561338 0.569069 0.5768 0.584531
0 0.00127993 0.00256049 0.00384231 0.00512562 0.00641041 0.00831686 0.0102258 0.0121375 0.0140557
0.015986 0.0169581 0.0179332 0.0189117 0.0198935 0.020879 0.0218732 0.0228764 0.0238894 0.0249124
0.0259476 0.0263899 0.0268339 0.0272812 0.0277319 0.0278556 0.0280048 0.0281541 0.0283036 0.0284532
0.0286031 0.0291465 0.0296942 0.030249 0.0308127 0.0313974 0.0314718 0.0315462 0.0316206 0.031695
0.0317597 0.0319775 0.0321953 0.032413 0.0326305 0.0328515 0.0329314 0.0330113 0.0330911 0.0331707
0.0332396 0.0334505 0.0336606 0.0338696 0.0340753 0.0342874 0.0343494 0.0344109 0.0344719 0.0345326
0.0345854 0.0345912 0.034597 0.0346028 0.0346086 0.0346143 0.0348296 0.0350403 0.0352465 0.0354453
0.0356356 0.0356575 0.0356793 0.0357011 0.0357229 0.0357451 0.0358464 0.0359468 0.0360461 0.0361468
0.0362904 0.0363845 0.036478 0.0365709 0.0366628 0.0367523 0.036857 0.0369608 0.0370642 0.0371678
0.0373176 0.0374158 0.0375137 0.0376117 0.0377105 0.037807 0.0380189 0.038229 0.0384385 0.0386473
0.0388594 0.0390794 0.0392949 0.039506 0.0397172 0.0399312 0.0401473 0.0403618 0.0405752 0.0407892
0.0410059 0.041227 0.0414447 0.0416609 0.0418775 0.0420951 0.042314 0.0425313 0.0427485 0.042966
0.0431849 0.0436302 0.0440758 0.0445246 0.0449768 0.0454373 0.0459163 0.0463833 0.0468423 0.0473042
0.0477798 0.048263 0.0487443 0.0492257 0.0497109 0.0502042 0.0512217 0.052245 0.0532812 0.0543717
0.0554782 0.0558223 0.0561668 0.0565123 0.0568592 0.0572241 0.0580371 0.0588496 0.0596615 0.060477
0.061301 0.0625017 0.0636794 0.0648641 0.0660636 0.067257 0.0684844 0.069688 0.0708697 0.0720448
0.0732122 0.0736167 0.0740205 0.0744247 0.0748293 0.0752268 0.0755558 0.075885 0.0762143 0.0765438
0.0768824 0.0773227 0.0777633 0.0782044 0.0786458 0.0790876 0.0814358 0.0837862 0.0861357 0.0884552
0.090748 0.0952666 0.099838 0.104311 0.10864 0.112861 0.121175 0.129458 0.137677 0.145724
0.153601 0.161343 0.169084 0.176822 0.184557 0.192288 0.200016 0.207744 0.215469 0.223194
0.230916 0.236393 0.241869 0.247345 0.252821 0.258293 0.260535 0.262778 0.26502 0.267262
0.269504 0.277217 0.284933 0.292649 0.300364 0.30808 0.315787 0.323502 0.331217 0.338933
0.346648 0.354349 0.362063 0.369778 0.377494 0.385209 0.392903 0.400618 0.408332 0.416047
0.423761 0.43145 0.439164 0.446878 0.454592 0.462305 0.469989 0.477702 0.485415 0.493128
0.500841 0.50852 0.516232 0.523943 0.531655 0.539366 0.547041 0.55475 0.56246 0.57017
0.57788 0 0.00127753 0.00255578 0.00383514 0.00511578 0.00639771 0.0082993 0.0102028 0.0121092
0.0140204 0.0159397 0.0169039 0.01787 0.0188379 0.0198082 0.0207806 0.0217544 0.0227332 0.0237173
0.0247059 0.0256983 0.026689 0.027686 0.0286914 0.029692 0.0307005 0.0307758 0.0308511 0.0309264
0.0310014 0.0310708 0.0319931 0.0328959 0.0337781 0.0346392 0.0354978 0.0359457 0.0363914 0.036835
0.0372775 0.0377146 0.0381531 0.0385892 0.0390244 0.039459 0.0398877 0.0403207 0.0407539 0.0411874
0.0416212 0.0420556 0.0424917 0.0429268 0.0433627 0.0437996 0.0442383 0.0451164 0.046003 0.0468962
0.0477969 0.0487228 0.04967 0.0506097 0.0515428 0.0524828 0.0534323 0.0541529 0.0548788 0.0556069
0.0563367 0.0574491 0.0576169 0.0577849 0.057953 0.0581212 0.0582894 0.0592734 0.0602568 0.0612405
0.0622239 0.0632064 0.0652073 0.067195 0.0691722 0.0711589 0.0731429 0.0751018 0.0770871 0.0790875
0.081092 0.0830984 0.0871131 0.0911445 0.0951434 0.0990968 0.103044 0.105847 0.108654 0.11147
0.114279 0.117579 0.122604 0.1276 0.132568 0.137509 0.142422 0.150132 0.157845 0.165556
0.173263 0.180969 0.188663 0.196364 0.204063 0.211761 0.219458 0.227145 0.234838 0.242531
0.250222 0.257913 0.265595 0.273283 0.28097 0.288656 0.296341 0.30402 0.311703 0.319385
0.327067 0.334747 0.342423 0.350101 0.357779 0.365456 0.373133 0.380805 0.38848 0.396154
0.403827 0.411499 0.419169 0.426839 0.434509 0.442179 0.449848 0.457514 0.465181 0.472848
0.480514 0.488179 0.495843 0.503507 0.51117 0.518832 0.526494 0.534154 0.541815 0.549475
0.557134 0.564793 0 0.00127409 0.00254881 0.00382397 0.00510037 0.00637799 0.0082739 0.0101719
0.0120723 0.0139756 0.0158831 0.0177924 0.0197069 0.0216264 0.0235505 0.0254825 0.0264534 0.0274212
0.0283842 0.0293422 0.029958 0.0309767 0.0319878 0.0329884 0.0339788 0.0349574 0.0358664 0.036772
0.0376735 0.0385721 0.0394616 0.0403523 0.0412414 0.0421294 0.0430164 0.0439027 0.0456799 0.0474744
0.0492835 0.0511022 0.0529375 0.0537972 0.0546582 0.0555213 0.0563864 0.057725 0.0586199 0.0595166
0.0604151 0.0613154 0.0622172 0.0640929 0.0659715 0.0678528 0.0697367 0.0716226 0.0735183 0.075406
0.0772947 0.0791848 0.081076 0.0848721 0.0886674 0.0924672 0.0962716 0.10009 0.10779 0.115493
0.12315 0.13077 0.138405 0.146054 0.1537 0.161346 0.168989 0.176631 0.184277 0.19192
0.199561 0.207201 0.214839 0.222481 0.230119 0.237757 0.245393 0.253028 0.260667 0.268303
0.275937 0.283571 0.291204 0.29884 0.306474 0.314106 0.321738 0.329369 0.337002 0.344633
0.352264 0.359893 0.367522 0.375153 0.382782 0.390411 0.398038 0.405665 0.413294 0.420921
0.428547 0.436173 0.443797 0.451424 0.459049 0.466674 0.474297 0.48192 0.489545 0.497168
0.504791 0.512412 0.520033 0.527656 0.535276 0.542897 0.550517 0.558136 0 0.00127142
0.00254322 0.00381555 0.00508848 0.00636201 0.0101414 0.0139324 0.0177225 0.0215092 0.0252998 0.0257896
0.0262781 0.0267658 0.0272526 0.0276812 0.0290719 0.0304573 0.0318375 0.0332126 0.0345852 0.0364264
0.038258 0.0400728 0.0418834 0.0436891 0.0455003 0.0473089 0.0491189 0.0509376 0.0527677 0.0546039
0.0564416 0.0582822 0.0601256 0.0619716 0.0656738 0.06939 0.0731221 0.0768691 0.0806198 0.0843903
0.0881589 0.0919277 0.0956986 0.0994719 0.107002 0.114531 0.122064 0.129612 0.137176 0.144754
0.15233 0.159907 0.167485 0.175061 0.182642 0.190219 0.197797 0.205374 0.21295 0.220529