# vtk DataFile Version 2.0
sampleSurface
ASCII
DATASET POLYDATA
POINTS 2021 float
-0.500032 0 0.11501 -0.499951 3.38813e-21 0.0392727 -0.789037 8.47033e-21 0.120673 -0.500013 -1.35525e-20
0.193965 1.00003 0 0.0485099 1.00003 0 0.0478584 0.475202 0 0.0353615
0.250044 1.41878e-20 0.0305359 0.2506 -5.42101e-20 0.117067 0.251301 0 0.203885 0.364989
0 0.203772 1.75002 0 0.113255 1.75002 0 0.0564279 2.50001 6.89146e-18
0.059229 2.21354 0 0.250758 2.50001 0 0.252875 3.25001 -3.47927e-17 0.0598775
3.25001 -1.69407e-21 0.253888 4.00001 5.60566e-18 0.0599857 4 0 0.253986 4.75
-1.79088e-17 0.0599988 4.75 8.47033e-22 0.253998 5.5 -2.79246e-17 0.0599999 5.5 -4.23516e-22
0.253999 6.25 1.01187e-17 0.06 6.25 0 0.254 7 2.93732e-17 0.06
7 0 0.254 7.75 -2.65294e-17 0.06 7.75 0 0.254 8.5
1.8923e-17 0.06 8.5 0 0.254 9.25 -2.88552e-17 0.06 9.25 -5.29396e-23
0.254 10 -2.64698e-23 0.254 10 0 0.06 -4.24997 0 0.0599042
-5 0 0.0599861 -5 0 0.253986 -4.24997 0 0.253912 -3.49995
0 0.0593815 -3.49994 0 0.253441 -2.74993 0 0.0570188 -2.74991 0
0.251316 -1.99991 0 0.0492276 -1.99987 0 0.242776 -1.24992 -1.69407e-21 0.03
-1.24985 1.23328e-17 0.222327 -1.24989 3.38813e-21 0.125756 -0.874924 2.08116e-17 0.03 -0.874929
0 0.122356 -0.124951 -8.47033e-22 0.03 -0.499941 0 0.03 -0.124922 -8.47033e-22
0.0385291 1.00021 0 0.231242 0.625368 0 0.203537 0.25004 -2.11758e-22 0.03
1.75003 0 0.247334 1.92873 1.69407e-21 0.441438 2.50001 0 0.447397 3.25
-1.69407e-21 0.447898 4 0 0.447986 4.75 0 0.447997 5.5 -4.23516e-22
0.447999 6.25 4.23516e-22 0.447999 7 0 0.448 7.75 -1.05879e-22 0.448
8.5 0 0.448 9.25 0 0.448 10 -2.64698e-23 0.448 -5
-8.47033e-22 0.447985 -4.24997 0 0.447919 -3.49993 0 0.4475 -2.74988 0
0.445609 -1.9998 6.77626e-21 0.437758 -1.24969 1.61411e-17 0.417681 -1.24976 -6.77626e-21 0.31973
-0.875161 7.70461e-18 0.216228 -0.875403 0 0.312476 -0.499924 -8.74138e-19 0.250039 -0.312433
0 0.250037 -0.312436 0 0.200025 -0.499924 0 0.200026 0.250062 3.38813e-21
0.24921 0.250039 -1.69407e-21 0.250046 0.250032 0 0.300069 0.437526 3.05948e-18 0.300066
0.625026 0 0.30005 1.00072 -8.23994e-18 0.326497 1.00196 0 0.423 1.75013
0 0.439575 1.75013 1.77877e-20 0.448245 1.00135 0 0.537141 1.00002 0
0.61834 1.74999 2.71051e-20 0.633055 2.49999 -3.38813e-21 0.641448 3.25 0 0.641907
4 -1.69407e-21 0.641985 4.75 -8.47033e-22 0.641996 5.5 -4.23516e-22 0.641998 6.25
0 0.641999 7 0 0.641999 7.75 0 0.642 8.5 5.29396e-23
0.642 9.25 -5.29396e-23 0.642 10 0 0.642 -5 0 0.641985
-4.24997 -1.69407e-21 0.641926 -3.49993 0 0.641557 -2.74988 0 0.639897 -1.99989
6.77626e-21 0.63382 -1.25099 2.55465e-18 0.614606 -1.25 -2.71051e-20 0.515981 -0.878244 0
0.50789 -0.875961 2.71051e-20 0.459694 -0.875609 0 0.410432 -0.498432 0 0.400603
-0.498071 -1.70762e-18 0.413126 -0.450805 0 0.413349 -0.45095 0 0.400955 0.250009
1.89735e-19 0.412703 0.25 2.71051e-20 0.425212 0.296872 1.00289e-18 0.425187 0.343754 -2.71051e-20
0.425153 0.343763 0 0.400146 0.250006 0 0.400175 1.00162 1.41488e-17 0.520353
-2 4.23516e-22 0.820145 -2.09502 -2.11758e-22 0.830091 -2 0 0.829497 -1.25123
0 0.813251 -1.25126 0 0.713737 -1.25101 6.77626e-21 0.62198 1.00059 0
0.714169 1.00094 0 0.809205 1.75018 0 0.82775 2.5 0 0.835521
3.25 0 0.835917 4 -1.69407e-21 0.835986 4.75 -8.47033e-22 0.835996 5.5
0 0.835998 6.25 0 0.835999 7 0 0.835999 7.75 0
0.836 8.5 0 0.836 9.25 0 0.836 10 0 0.836
-5 -8.47033e-22 0.835986 -4.24997 0 0.835935 -3.49995 0 0.835616 -2.74991
0 0.83419 -0.970118 0 0.703382 -0.87455 0 0.699864 -0.874264 -2.71051e-20
0.649852 -0.874033 -2.71051e-20 0.599873 -0.49698 0 0.599585 -0.497345 -9.21572e-19 0.612046
-0.450014 0 0.611892 -0.44938 2.71051e-20 0.599454 -2.00002 0 0.84097 -1.84639
-3.38813e-21 1.02215 -1.25185 0 1.01276 -0.896512 -3.38813e-21 0.900668 -0.908183 6.77626e-21
0.801076 -0.904022 -1.86347e-20 1.00093 0.624925 0 0.799916 0.249931 0 0.799891
0.249978 0 0.899916 0.249997 0 0.999939 0.999987 0 0.999957 1.75061
-2.1684e-19 1.02409 2.50003 0 1.0296 3.25 -1.69407e-21 1.02993 4 0
1.02999 4.75 0 1.03 5.5 0 1.03 6.25 2.11758e-22 1.03
7 0 1.03 7.75 0 1.03 8.5 5.29396e-23 1.03 9.25
0 1.03 10 0 1.03 -5 0 1.02999 -4.24998 0
1.02994 -3.49996 -8.47033e-22 1.02968 -2.74996 0 1.02849 -2.00026 0 1.02458
-0.87482 0 0.799893 -0.87491 0 0.899919 -0.49993 0 0.799862 -0.499958
7.6233e-19 0.849889 -0.312476 0 0.849885 -0.312472 0 0.799853 -1.25001 8.04681e-21
1.19601 -0.499979 5.29396e-23 1.10737 -0.731886 2.11758e-22 1.19997 -0.499981 0 1.19997
-0.124987 0 0.999933 -0.477759 -5.29396e-23 0.999933 -0.487556 -1.45584e-22 1.09995 0.250008
0 1.19997 1 0 1.19997 1.7507 0 1.22203 2.50003 -1.35525e-20
1.22368 3.25 0 1.22394 4 0 1.22399 4.75 4.23516e-22 1.224
5.5 0 1.224 6.25 2.11758e-22 1.224 7 0 1.224 7.75
1.05879e-22 1.224 8.5 0 1.224 9.25 0 1.224 10 2.64698e-23
1.224 -5 4.23516e-22 1.22399 -4.24999 -4.23516e-22 1.22395 -3.49998 0 1.22374
-2.75001 0 1.22279 -2.00077 0 1.21965 -1.24997 4.23516e-22 1.19997 -0.499969
-5.29396e-23 0.999933 -0.874942 0 0.999936 -0.499979 -1.32349e-23 1.09995 -2.75001 0
1.36967 -3.18711 4.23516e-22 1.41751 -2.75001 4.23516e-22 1.4171 -2.00072 3.38813e-21 1.29692
-2.00065 0 1.41474 -1.25823 6.35275e-21 1.40014 -0.980416 0 1.39998 -0.499986
0 1.39998 0.250009 0 1.39998 1 0 1.39998 1.75054 0
1.41682 2.50002 -1.35525e-20 1.41776 3.25 0 1.41796 4 4.23516e-22 1.41799
4.75 0 1.418 5.5 0 1.418 6.25 0 1.418 7
0 1.418 7.75 0 1.418 8.5 0 1.418 9.25 0
1.418 10 0 1.418 -5 0 1.41799 -4.24999 0 1.41797
-3.49999 -4.23516e-22 1.41781 -1.24998 0 1.39998 -2.80392 1.32349e-23 1.61143 -2.75
-1.32349e-23 1.6114 -2.0003 0 1.60983 -1.25396 2.64698e-23 1.60004 -1.12789 2.64698e-23
1.59999 -0.49999 1.05879e-22 1.59999 0.250008 0 1.59999 1.00001 4.23516e-22 1.59999
1.75038 0 1.61122 2.50002 0 1.61184 3.25 -4.23516e-22 1.61197 4
-4.23516e-22 1.61199 4.75 0 1.612 5.5 0 1.612 6.25 0
1.612 7 0 1.612 7.75 5.29396e-23 1.612 8.5 2.64698e-23 1.612
9.25 -1.32349e-23 1.612 10 -1.32349e-23 1.612 -5 0 1.61199 -4.24999
0 1.61198 -3.49999 0 1.61187 -1.24999 0 1.59999 -2.75 -1.32349e-23
1.63714 -2.64195 -2.11758e-22 1.80559 -2.00012 -8.47033e-22 1.80492 -1.25741 0 1.80004
-1.19082 -7.94093e-23 1.8 -0.499992 1.05879e-22 1.79999 0.250006 2.11758e-22 1.79999 1
0 1.8 1.75023 0 1.80561 2.50001 3.38813e-21 1.80592 3.25 0
1.80599 4 0 1.806 4.75 2.11758e-22 1.806 5.5 0 1.806
6.25 0 1.806 7 0 1.806 7.75 0 1.806 8.5
2.64698e-23 1.806 9.25 0 1.806 10 0 1.806 -5 0
1.806 -4.25 -2.11758e-22 1.80599 -3.49999 0 1.80594 -2.75 -1.05879e-22 1.8057
-1.24999 0 1.8 -2 -4.76456e-22 1.98532 -1.20969 -1.65436e-23 2 -0.499993
0 2 0.250006 0 2 1 0 2 1.75 0
2 2.5 0 2 3.25 0 2 4 0 2
4.75 -1.05879e-22 2 5.5 0 2 6.25 0 2 7
5.29396e-23 2 7.75 0 2 8.5 0 2 9.25 0
2 10 -1.32349e-23 2 -5 2.21817e-18 2 -4.25 1.05879e-22 2
-3.49999 0 2 -2.74999 0 2 -1.99999 -5.29396e-23 2 -1.24999
3.30872e-24 2 0.0956945 -5.42101e-20 0.203879 0.0632748 0 0.203876 0.0625511 0
0.250042 -0.403589 6.77626e-21 0.40138 -0.405779 7.7927e-19 0.38799 -0.406379 -6.77626e-21 0.375196
-0.499567 -1.35525e-20 0.375265 0.250006 -6.50521e-19 0.375144 0.156247 0 0.375155 0.156237
9.41901e-19 0.400212 0.203129 0 0.400201 0.249796 0 0.59991 0.249852 -1.0842e-19
0.587433 0.202953 0 0.587417 0.202888 6.50521e-19 0.599901 0.625121 -6.77626e-21 0.499953
0.717439 6.77626e-21 0.504955 0.625095 6.77626e-21 0.475379 0.343596 1.0842e-19 0.599918 0.343639
0 0.574939 0.296781 0 0.574964 0.249926 0 0.574977 0.62499 -4.2826e-18
0.549927 0.624917 4.55365e-18 0.599925 0.203133 0 0.412725 -0.449046 0 0.587135
-0.496581 5.42101e-20 0.587161 0.625036 -9.32414e-18 0.40006 0.625067 1.13164e-18 0.450032 0.249704
0 0.624881 0.155871 0 0.599866 0.155839 1.95156e-18 0.624853 0.249886 1.35525e-20
0.749873 0.062411 0 0.749846 0.0624478 -4.26227e-18 0.799869 -0.312472 0 0.749804
-0.499901 -3.38813e-21 0.749824 -0.691227 0 0.30453 -0.499912 3.02221e-18 0.300065 -0.875784
-3.11708e-18 0.361353 -0.592465 -2.71051e-20 0.40036 -0.499854 0 0.350135 -0.687111 1.35525e-20
0.350117 -0.68656 -2.71051e-20 0.40021 0.437526 -1.35525e-20 0.400108 0.437522 6.77626e-21 0.350086
0.250015 -2.51399e-18 0.35011 0.625027 3.38813e-21 0.350064 -0.592287 0 0.425286 -0.498048
0 0.425444 -0.873902 5.42101e-18 0.54992 -0.496663 0 0.574746 -0.591532 0
0.574798 -0.591729 0 0.599734 -0.149108 0 0.406489 -0.149477 -5.29396e-23 0.403592
-0.149678 0 0.406489 -0.451876 -2.1684e-18 0.499977 -0.451579 0 0.487563 -0.498366
0 0.487552 -0.498515 -1.0842e-19 0.499993 0.437553 0 0.450075 0.437532 -6.07153e-18
0.425113 0.254621 -1.25361e-19 0.496697 0.26485 -5.42101e-20 0.498023 0.264831 0 0.496529
0.254636 -2.30393e-19 0.49668 0.570241 0 0.499932 0.437665 -2.71051e-20 0.474991 0.437859
-2.71051e-20 0.49988 0.437372 -1.0842e-19 0.599915 0.249722 3.25261e-19 0.649874 0.43732 -5.42101e-20
0.649899 0.624872 0 0.649914 0.624883 -3.95734e-18 0.699913 0.43734 6.83047e-18 0.699894
0.249817 0 0.699869 -0.592227 0 0.624743 -0.498071 -2.71051e-20 0.624658 -0.499769
6.77626e-21 0.69979 -0.687025 0 0.699824 -0.150854 -1.03677e-18 0.599678 -0.151059 -6.77626e-21
0.605522 -0.127339 6.77626e-21 0.605681 -0.127867 0 0.599582 -0.406139 -4.40457e-20 0.699754
-0.406113 0 0.674749 -0.499634 0 0.674774 -0.18433 -4.23516e-22 0.674527 -0.163626
-4.23516e-22 0.678958 -0.165125 0 0.674537 -0.171868 4.23516e-22 0.674524 -0.14924 3.34737e-19
0.400169 -0.125737 0 0.400165 -0.12551 0 0.393854 -0.149076 -2.11758e-22 0.393877
-0.499925 -2.61564e-18 0.325088 -0.406241 0 0.325087 -0.4062 0 0.300069 -0.124901
0 0.300062 -0.218633 -3.27294e-18 0.299673 -0.218596 1.35525e-20 0.324664 -0.124851 0
0.325085 -0.126061 7.86047e-19 0.406473 -0.0785222 1.30782e-18 0.400166 -0.126118 3.38813e-21 0.41275
-0.0785648 0 0.412729 0.240678 1.0842e-18 0.500153 0.252614 -2.1684e-19 0.498317 0.252386
1.0842e-19 0.496231 0.241035 0 0.496114 0.228892 -1.35525e-20 0.496204 0.228835 6.77626e-21
0.498715 0.229819 2.71051e-20 0.500074 0.25248 0 0.499935 0.240657 -1.6263e-19 0.500957
0.264863 0 0.500154 0.264689 0 0.500951 0.437443 0 0.549896 0.437406
[...]
POINT_DATA 2021
FIELD attributes 2
p 1 2021 float
2.0082 1.43682 2.36886 4.36105 0.0609266 0.0588101 -4.20363 -6.04252 -7.69149 -6.16319 -4.31837
0.496711 0.464546 0.111701 0.326768 0.174838 0.00334593 0.0271239 0.00555677 0.0144292 0.00973964
0.015665 0.00498618 0.0100529 0.000317363 0.00461625 -0.00130032 0.00236732 -0.00100388 0.0021551 -0.000417519
0.00215602 0.000598757 0.00335544 0 0 0.614188 0.609735 0.609584 0.613902 0.635058
0.634163 0.70498 0.701851 0.926929 0.923646 1.64084 1.76241 1.77762 2.23546 2.47587
-4.0576 1.3668 -4.11043 0.653648 -0.106924 -6.0323 0.572575 0.442863 0.189792 0.029231
0.00733738 0.00952324 0.00570243 0.00111871 -0.000583265 -0.000267681 -0.000405046 0.00266018 0 0.609152
0.613133 0.63175 0.692823 0.902557 1.95632 2.02904 3.12758 3.87203 7.3218 -3.30179
-1.05366 4.58111 -5.72614 -5.71825 -2.25774 0.344015 0.831338 1.03463 0.929775 0.521972
0.517778 0.849297 0.881587 0.428232 0.167457 0.0230975 0.00237815 0.00659267 0.00445783 0.000506025
-0.000928434 -0.000414733 -0.000270929 0.00285334 0 0.608462 0.611944 0.628116 0.680143 0.862145
1.85032 2.13605 5.13411 5.58804 4.82544 32.5717 36.4566 52.0256 45.9815 4.77759
4.92699 3.41241 3.44437 2.69853 4.10056 0.842619 0.808127 0.787659 0.805415 1.39688
1.78583 1.84555 0.993996 0.483596 0.350292 0.127823 0.0136238 0.000527678 0.00702589 0.00624509
0.00265632 0.0011995 0.00149773 0.00207234 0.00350479 0 0.607586 0.610464 0.623686 0.665274
3.25226 3.75075 4.68267 4.76048 34.3605 32.6999 44.6264 50.7667 0.801585 0.781347
0.939956 1.70258 2.62737 1.14223 0.0814508 -4.88174 -5.30092 -2.74808 -0.227692 0.19146
0.0733639 -0.00550892 -0.0108692 -0.000869214 0.000982459 -0.00110662 -0.00167713 -0.000800082 0.000314453 0.00129109
0 0.606617 0.608842 0.618861 0.649303 0.740275 2.74695 1.73234 5.19052 3.29386
0.559658 -0.671167 0.697943 0.31137 0.313083 0.143155 -1.70905 0.673994 0.281859 -0.973843
-0.393284 0.0982523 0.0648468 -0.00292446 -0.0108609 -0.000963917 0.00155874 -0.000281386 -0.000841636 2.07532e-06
0.00105872 0.0015674 0 0.605653 0.607233 0.614017 0.633186 0.676811 0.692706 0.824032
1.15913 0.324853 0.621964 0.613245 0.61834 0.65656 0.625675 0.566735 0.384102 0.0597717
-0.56411 -0.377261 0.0464525 0.05936 -0.00433713 -0.0150929 -0.00431009 -0.000678241 -0.00202716 -0.0023379
-0.00132411 -0.000146995 0.000436288 0 0.60479 0.605778 0.609597 0.56608 0.606572 0.606612
0.590609 0.495614 0.42711 0.0774302 -0.435138 -0.348485 -0.000764055 0.0481272 -0.00788537 -0.0187419
-0.00640012 -0.00168027 -0.00262884 -0.00275435 -0.00163954 -0.000395786 0.000257365 0 0.604112 0.604607
0.606056 0.495109 0.605634 0.595059 0.570298 0.457977 0.427656 0.0867624 -0.364907 -0.332598
-0.0272963 0.0430404 -0.00828308 -0.0198247 -0.00715426 -0.0020978 -0.00294867 -0.00300914 -0.00184637 -0.000575601
0.000122972 0 0.603674 0.603825 0.603716 0.599228 0.456855 0.564031 0.425503 0.0898545
-0.342546 -0.327459 -0.0355933 0.0415102 -0.00837761 -0.0202419 -0.00751306 -0.00232694 -0.00310798 -0.00310619
-0.00190041 -0.000609787 0.000109769 7.80405e-05 0.60352 0.603543 0.602873 0.59671 0.563521 0.444564
-10.2841 -11.1421 -11.7903 70.4787 60.066 43.8812 29.6702 2.93561 1.70641 4.41909
5.07731 4.14725 4.56463 6.19565 5.4085 2.02637 1.73598 2.14284 2.9699 3.67928
3.37387 3.98041 2.24604 1.91363 6.06819 56.2546 39.4476 1.93716 2.26264 3.6417
4.7399 2.15571 -4.53259 -11.209 -9.8458 -3.18183 8.46766 7.00294 11.9016 4.7487
17.462 20.8177 9.13558 10.5158 2.58581 1.50343 1.00184 1.65847 19.7289 36.9137
5.61232 39.6468 20.3297 18.8204 -58.6389 -58.4207 -58.6357 68.4637 68.376 47.5623
44.7969 3.41801 3.11848 -5.00884 0.362293 0.211554 -5.05842 2.58979 3.98845 3.94518
2.86379 1.83046 1.76017 1.62661 0.949681 0.760197 -1.36495 17.0066 28.1088 13.2994
7.27757 -56.4951 -56.2894 -58.753 -58.6691 13.884 19.1226 18.4887 -46.2564 -42.703
-44.3806 -45.1142 -58.1667 -57.4536 -57.4449 -57.5791 16.6098 15.8805 12.0017 -29.3684
-27.9754 -45.3798 -37.0744 -58.7672 -45.9495 -58.6003 -48.0471 10.9881 4.29506 10.5099
11.8477 9.09118 9.36702 9.65535 4.52042 11.1101 0.921046 0.754354 3.72253 3.47859
4.06816 4.32276 47.7559 68.3465 -58.7896 -56.4135 6.50784 11.1165 -51.3907 -52.677
-58.377 4.4948 6.30122 6.48413 6.51606 -31.4161 -40.0183 -49.413 -29.7721 64.4084
60.7928 41.6561 41.4054 -44.0338 -55.9765 -11.5237 -8.58378 -0.439299 -24.5384 -42.4628
42.9854 44.3126 64.3115 66.4821 -51.7601 -49.9225 -50.687 0.311204 -9.69588 -12.7324
-11.7011 -21.6812 -24.8846 -57.8225 44.0406 21.8519 22.146 11.7015 12.018 12.1921
13.1429 22.0233 44.5063 10.7978 12.4606 11.9009 13.2406 -58.557 -58.5492 -58.0421
-58.0293 -57.3795 -56.7555 -56.3864 45.8197 66.8311 -58.2126 -58.4902 -58.8844 -58.1197
-29.7705 -34.9673 -32.6795 -13.6965 -1.57473 -4.8907 -50.5144 -50.1579 -57.9233 -13.0959
0.157718 0.0723117 -13.3265 -58.2053 -56.7562 -51.2325 -12.4426 -10.1767 -3.67807 1.58097
-7.38781 -5.62048 -18.6549 -38.3489 -41.4236 -36.3368 -52.208 -53.2102 -52.9483 -4.14324
-17.5626 -18.3075 -4.76148 -56.0359 -51.9613 -56.067 -3.57496 -9.29631 -16.6032 -11.6017
67.5339 46.8708 -54.1332 -54.296 -56.7271 -56.6211 -56.1337 -53.618 -57.0197 -53.1345
-55.9061 -58.8453 -58.9713 -59.0145 -32.0767 -77.0089 -96.0305 -100.976 -103.19 -102.749
-48.5187 -50.2082 -54.2219 -48.2421 -49.9933 -98.1727 -99.4365 -71.3221 -34.3587 -58.3594
-59.1638 -58.8429 -56.2036 -57.0899 -57.1244 -57.051 -57.475 7.14341 6.06667 8.95759
-55.9939 -55.6672 -55.8912 -55.3888 -55.514 -55.7743 -56.1747 -55.0378 -55.0227 2.04634
1.83573 0.71656 1.22526 4.18664 4.56097 1.32007 -55.7837 -56.2558 -56.8882 5.81821
6.64923 2.79272 0.888636 3.15828 -32.0478 -38.0682 -37.3071 -31.6358 -54.4653 -54.9637
-57.8884 -57.5705 -54.8804 -55.7258 -38.9018 -43.2471 -43.0747 -36.9405 -46.0805 -50.1144
-53.1829 -53.3327 -52.193 123.597 131.457 146.798 146.886 -58.0359 -56.1062 -56.376
-57.7505 -57.5517 4.48185 2.20337 3.11734 4.71533 -9.75389 -3.9408 -5.87626 -8.90178
-11.782 -39.0194 -36.8719 -25.603 -27.2954 -32.098 -39.0359 -24.796 -24.8516 31.1106
41.2911 52.1312 37.9326 23.076 19.3055 34.273 26.1632 0.671675 0.829921 1.98838
34.0702 24.8956 17.0683 22.1328 2.89149 3.83846 4.47859 4.58678 3.68044 6.66328
6.76809 4.57874 -9.34254 -8.22357 -1.37398 -10.2263 14.6878 9.1476 10.8227 -54.6149
-56.8727 -57.0033 -54.8091 -82.6121 -81.3305 -84.5719 -47.8862 -12.6589 -18.3127 -27.5481
-55.9387 -52.7923 -55.3062 -56.357 -73.9845 -73.6911 -58.315 -59.6081 -49.4556 -47.9262
-50.1875 -50.3598 3.75614 3.81845 -0.604741 6.0078 5.6592 4.66765 5.34034 5.7494
6.15275 -54.1031 -53.6299 -68.7179 -67.9278 79.0035 94.0987 85.6969 112.106 106.416
88.8383 90.1533 161.848 164.179 153.358 121.627 98.4076 104.347 97.3023 117.639
-12.8829 -26.9394 -31.2413 -5.84447 -26.1269 -52.0431 -41.7173 -6.3213 93.7331 101.231
86.8114 78.2796 96.7041 88.4016 107.614 148.471 158.22 167.409 165.145 106.628
102.905 159.638 -32.6483 -8.0108 -38.3137 -28.5443 -47.7138 140.208 140.077 115.6
110.581 110.241 115.505 139.6 138.983 108.13 167.229 170.834 172.005 172.296
173.709 186.648 186.837 174.816 173.268 -32.9176 -40.0365 -32.8776 -56.3877 -50.7631
-42.6304 -41.8767 -40.6185 -25.5209 2.79393 -2.57077 -0.611916 173.388 175.333 187.189
172.361 186.506 187.149 175.221 172.171 179.599 181.763 170.113 168.881 179.896
167.879 171.097 182.422 -52.5952 -37.8528 -36.6135 -55.6741 -55.7288 -55.8184 -36.4035
-46.2397 -36.4898 -36.9299 -45.833 -45.8032 -3.40265 -9.26635 -25.1558 -25.1857 -32.8583
-43.5019 -32.9068 -32.6133 -42.9366 -21.1714 -18.8616 -20.615 115.418 140.137 138.124
139.033 114.676 109.305 170.037 169.911 170.479 167.742 136.398 108.395 113.573
137.149 -57.0795 -54.1297 -52.7642 -52.5937 -55.6404 -46.1117 90.1309 93.3913 78.6207
-14.8662 -6.1506 -6.68754 -20.7873 54.5569 56.4194 70.0173 73.664 -55.7878 -55.0301
-55.3331 -55.7863 -56.9614 -57.2076 -57.3493 -57.4464 -56.0107 -56.0977 -55.657 -55.7723
-134.714 -109.2 -77.6554 -95.5802 -97.9382 -99.0802 -99.0718 -83.1996 -78.8976 -92.4396
-70.5769 -85.4587 -133.02 -136.549 -128.459 -96.1163 -96.8919 -54.6628 -54.1091 -54.7915
-55.9222 -56.2143 -53.7439 -53.6581 6.82655 7.37835 13.7743 16.4108 13.8662 -50.889
-50.1596 -45.6864 -45.9242 -46.0327 -45.829 -45.8018 -45.585 12.9134 12.6488 16.838
8.26505 8.06634 9.63785 10.1191 10.145 8.50892 7.32337 8.07949 12.3966 15.7035
13.7227 0.771908 -0.851078 -3.03713 7.0396 6.21228 5.0886 6.42009 7.14679 -52.4377
-53.2993 -56.2639 -55.6004 -48.6036 -49.5564 13.6636 15.6357 17.0444 -46.7004 -49.6184
-49.75 -46.413 -45.5669 11.3492 11.093 11.1354 9.55311 6.85798 -6.96328 -5.72926
5.48466 6.3066 6.2625 -48.4801 -48.795 146.486 148.511 140.927 136.966 113.347
118.305 125.715 121.19 184.605 185.882 182.182 178.423 -55.5896 -55.526 -52.9431
-52.8513 169.638 183.359 185.058 172.995 174.451 186.573 171.031 182.145 169.627
179.281 -16.9072 -19.1645 -23.9147 -28.1407 -26.7519 -22.8654 -8.67744 -3.35731 -3.80876
-8.99214 -14.0101 -13.6309 -1.03797 -9.06877 -9.93817 -15.0234 -18.1531 -8.22385 -8.97829
-24.9602 -20.2333 -9.65738 -0.780427 -3.05243 6.06716 -3.46648 6.04975 6.81878 3.37588
3.90683 4.62939 4.19095 7.72791 6.10392 3.96638 5.82463 -18.9086 -15.9864 -26.3208
-21.4497 -56.3446 -58.0536 -58.6459 -58.5176 3.04552 3.11457 5.05966 5.53903 4.30374
4.90445 -14.5706 -40.3105 -57.2553 -65.471 -53.2734 -31.9221 -58.8247 10.7388 10.1954
10.2187 -2.38468 0.257576 11.9715 17.2156 9.50568 23.7101 20.5952 10.441 1.7236
6.8308 8.31876 13.1084 11.5507 6.79158 -53.4158 -44.0236 -49.8769 -13.0542 -43.8858
-24.9384 -60.5971 -83.6905 108.684 92.7409 106.201 108.364 112.745 111.88 172.882
172.006 173.257 172.573 171.274 185.963 185.964 185.198 -57.8666 -58.0878 174.488
-56.1061 -56.1046 -57.0453 -57.2084 -56.9223 -55.664 -150.021 -136.988 -136.846 -133.495
-157.629 -136.728 -132.503 -132.827 -119.462 -115.096 -80.4848 -73.156 -73.4289 -70.8482
-119.39 -121.048 -56.6851 -55.6882 -54.5832 -57.0618 9.52745 7.16226 10.7114 8.25369
11.0275 12.0589 12.4309 13.4171 14.2073 -55.2285 -54.3032 -56.2408 -55.0455 -53.0832
-52.8213 -52.9298 -54.8678 -5.94031 -0.454966 -1.39271 -4.57226 9.19698 9.56209 6.81885
5.86973 7.58542 9.5635 8.8082 6.73597 1.29506 8.16012 7.04669 6.88659 8.70252
10.4348 9.25495 12.0844 11.3656 -54.654 -55.0785 -55.1384 -55.2639 -55.4153 -55.2689
-54.7716 -52.7229 -54.0472 -54.0559 -54.0744 -51.0444 -52.4295 -73.7603 -72.9925 -57.6032
-59.8858 -77.5721 -68.4148 -77.4201 -123.839 -128.42 -136.043 -79.5072 -97.554 -107.352
-80.3716 -98.8922 128.754 113.589 148.523 151.747 -54.4956 -53.7047 -54.8302 -54.8202
-53.0446 143.892 167.877 146.15 -48.9324 -48.0994 -48.5379 -49.3096 -49.1217 -49.1394
-49.0664 -47.579 -8.06081 -9.34245 -11.8694 -10.9881 -14.8426 -17.0068 -19.1396 -16.935
-17.8558 74.8224 85.5232 -58.4435 51.2611 76.5459 65.0112 75.5389 60.9962 13.7549
10.8033 45.5145 36.5204 8.33587 9.18071 3.64095 5.30376 5.1126 7.78348 6.71519
7.08255 7.46836 8.27163 -52.7166 -52.2738 -51.9991 -52.5908 -0.995388 -0.481609 -1.05176
2.28963 5.71016 5.15182 7.10672 6.53717 -50.9144 -51.3206 -51.0429 138.198 136.278
171.187 184.779 189.085 189.371 186.862 185.339 -55.6594 -55.3622 -55.6833 -55.5017
-53.0824 -45.5162 -46.3435 -46.976 -46.1843 -46.5183 -47.8084 -56.0068 -56.0313 -56.6225
-57.2096 -56.902 -56.886 -57.0461 -56.653 -54.9459 -115.688 -111.344 -135.072 -111.608
-134.024 -122.198 -123.646 -133.505 -56.1075 -57.3758 -55.842 -54.4203 13.739 12.3568
11.3325 12.5199 12.7505 13.4063 -36.7283 -36.2084 -31.3939 -30.861 -41.7078 -42.231
-46.3929 -46.0077 -51.0545 -51.1025 -45.4763 -52.0925 -51.7303 -6.13457 -0.915386 -11.3837
0.743106 2.17473 8.03868 7.57185 7.89515 4.34146 10.7006 7.37912 8.78758 10.2442
10.8875 10.7781 10.9191 12.6856 12.3572 2.44654 12.4152 14.8088 15.9716 3.89877
3.40928 3.14525 3.82403 -58.8396 -58.0023 -52.8049 -56.4385 -44.5917 -44.0804 -40.0503
-44.4074 -45.8008 -49.8474 -51.0324 -49.5086 -49.719 -49.4902 -47.0219 -52.1363 -47.1369
4.22256 -48.2099 -49.4798 141.003 131.812 129.407 129.457 129.837 114.353 106.931
188.662 188.135 187.139 -50.6473 -50.9705 -1.26842 -0.697666 0.334202 -29.5422 -30.4711
186.06 186.895 180.372 183.332 181.879 181.508 -33.1809 -29.0116 -3.03422 -7.65756
-5.78739 -3.07205 -24.652 -13.5107 -10.0971 -13.302 -19.7265 -4.58385 80.8656 56.5131
60.8507 21.0662 21.4339 68.0117 110.702 10.1504 7.19326 -2.22481 -2.48532 6.85742
7.65138 7.93914 6.13738 6.58864 24.5463 16.3133 -0.386436 19.7783 -1.72019 3.50391
8.18119 8.10392 68.0186 110.207 -54.6683 -55.7695 18.1351 91.5566 109.002 100.411
92.4657 108.079 109.189 126.597 134.337 143.21 -55.7152 81.5953 73.5809 50.388
12.6173 18.6735 16.8447 -75.3414 -56.7674 -56.7609 -56.7642 -55.2386 -55.1535 -59.8927
-55.4433 -59.9182 -60.4741 23.3943 -6.5112 5.97132 10.5834 10.8129 -1.36831 -1.47144
-2.57975 -55.5427 -54.0557 -0.98931 2.56801 2.87414 -57.4556 -56.8905 -56.049 8.002
7.68942 4.17132 -56.5417 41.6908 49.6518 -66.6792 -58.8997 17.4772 14.9626 8.99008
6.9116 5.0761 8.51486 6.96256 -54.0924 -54.0569 -52.8727 -52.7932 -55.7759 -52.1584
-51.6768 -54.3547 -54.6618 -54.6462 -54.1344 -55.2372 -54.8082 -54.6643 -54.4045 4.50083
-51.6675 -57.7458 -56.7142 100.521 129.152 144.717 155.18 168.095 162.928 160.739
148.741 188.244 -52.7179 -53.6247 -51.8985 -7.36805 -10.401 -3.21257 -49.623 -49.6473
-49.6218 -49.8935 -53.0773 -47.1653 -48.698 -47.4802 -46.9876 -47.6879 28.9125 20.3472
-112.115 -119.711 -119.566 -120.199 -120.541 -73.8649 -96.4484 -73.8681 13.4414 17.0739
-10.8607 12.0609 11.5047 -5.48823 -7.05654 4.08457 2.47816 0.966259 0.630127 -0.640914
-2.26007 -1.00762 4.13313 4.52728 0.601755 2.84146 4.49977 2.40133 1.31511 13.3826
17.6806 -49.992 5.51604 12.7783 8.5386 16.4745 8.52133 11.1957 14.2015 15.9719
4.80122 5.01746 6.51134 5.92902 -2.02903 -3.9436 -6.18666 -6.08682 4.92902 1.74957
4.43832 9.44912 15.3184 16.5151 8.24355 5.71888 3.1143 2.80252 7.21826 10.6629
11.3131 11.9507 11.0903 5.75767 -3.45159 5.63318 -2.69984 3.28301 -3.46045 2.52466
10.9981 8.33332 12.3737 7.01475 9.47986 11.4017 10.8021 10.5024 7.96901 8.63087
9.15221 9.4021 7.94118 7.39808 7.40851 6.06482 -5.39538 -8.89442 -7.11507 6.53752
5.93904 8.00136 6.308 -9.10609 -10.86 1.16066 7.10491 5.94424 -1.58687 5.72936
-137.195 -137.902 -138.055 10.29 -55.518 -54.4846 -54.5322 5.25996 9.91941 5.34826
8.41123 11.0336 -55.6757 -55.646 -55.0066 -54.6965 -60.9343 -60.4256 -60.9086 -68.9731
-115.906 -119.697 -113.596 -120.409 -48.886 -49.4113 -47.3813 -47.0838 -47.3482 -47.0582
-14.624 -14.6236 -17.0383 -52.5269 -52.342 -52.1005 5.1563 1.53913 5.00958 4.97989
-51.9007 -52.3357 -52.458 141.762 151.113 -55.1588 -50.6365 13.4198 13.9822 11.5886
7.23386 11.4724 18.7144 4.25017 3.36808 4.70677 3.70612 -53.2129 -57.1409 -56.9493
-55.2026 7.77664 15.0664 11.1188 4.10622 4.2557 10.0816 8.83531 9.5203 8.63096
10.4093 12.4205 10.2699 5.85102 8.59921 8.24729 -54.0525 -50.0703 -48.4465 91.2572
80.297 84.2527 66.7953 72.7761 -4.77512 -2.89713 0.342636 -1.44012 7.67157 8.18007
7.72396 8.30381 8.06554 7.56357 7.10856 116.852 106.811 94.7704 -73.7927 -57.2058
-55.912 -54.7746 -54.6076 -54.2213 -54.1978 163.482 139.765 161.892 162.002 7.74526
4.6251 10.7027 11.4139 7.24135 8.57138 7.4739 6.93555 6.192 2.78254 -2.34649
4.79858 5.43747 6.02028 4.3801 6.6831 14.4495 9.06582 -12.7023 15.6021 14.2813
7.65234 10.7617 15.9747 9.15016 -12.5782 -13.4948 -11.5734 -2.78241 -4.78792 -13.0444
7.25592 5.34781 -14.5973 -16.2026 7.24599 4.89513 -0.946513 -3.79428 -54.9546 -45.8453
13.1583 1.96726 0.304568 -0.0862675 6.02857 5.58745 6.52125 6.10893 6.06516 5.64715
0.378693 6.30864 6.94277 -0.358342 5.76885 4.79233 7.23581 6.72971 6.15622 106.232
86.7058 122.042 123.829 5.23449 4.9636 3.51746 -55.1677 5.16399 6.1435 5.92182
-9.53519 -12.4951 -0.186569 6.31367 6.80219 5.45649 8.1383 5.26342 6.95893 3.94981
37.1374 -53.1316 -55.0756 -54.5863 -54.538 -54.6093 -2.89316 -4.26034 -12.4583 -12.3277
-12.3498 -3.33498 9.44044 3.20207 6.03507 7.10099 2.65951 2.4487 0.185594 -0.772471
-10.7776 -5.11807 -4.01057 -11.1449 -4.0656 -12.0077 5.66541 -11.2522 -12.2857 -2.35452
1.2622 6.41888 6.4327 5.85966 8.89074 0.324259 6.72285 -3.05338 -1.03701 4.39549
-0.690542 7.28157 4.89107 -9.84317 9.05502 -0.580929 6.21572 1.1001 1.48681 4.87792
5.23675 4.31666 5.03757 3.20533 7.7031 8.94565 5.51459 6.1245 1.02171 3.48687
11.1092 5.60373 0.893145 -0.490214 3.68875 173.152 176.975 176.12 181.032 169.133
168.103 172.684 179.947 180.939 69.5599 73.7606 54.919 -56.0727 -41.4519 -38.5744
-36.8224 -30.8984 -43.7397 -51.8524 -51.4988 -55.2222 -46.7345 100.757 154.485 162.121
155.262 147.004 -56.5203 -56.1156 -56.4595 -56.2251 -55.7448 -56.1845 -54.8341 -55.137
-54.9791 4.06921 -0.226914 171.244 -18.3077 186.019 190.267 189.414 -51.2693 -47.2503
182.757 185.888 186.064 -16.3932 -51.0347 85.2823 -54.9345 -55.0666 -55.3289 -55.2924
-49.3946 189.387 -2.3158 189.508 185.527 189.101 7.39584 -64.2468 110.614 109.921
-55.8241 4.62294 -51.6675 -52.9547 -51.7798 -138.271 138.752 -54.777 159.206 -51.9006
-120.621 -120.539 72.3091 7.00197 2.66842 168.092 164.704 -15.3994 139.848 191.111
190.006 185.411 189.457 190.796 189.791 172.799 191.166 186.786 189.961 191.201
0.614204 0.609741 0.635047 0.704112 0.917896 1.62142 2.20659 -3.98605 1.35388 0.0260627
-4.09873 -5.86834 0.40942 0.0902817 -0.0016566 0.00536141 0.0104713 0.00584333 0.00115725 -0.000513997
-0.000279418 0.000246375 0.00115558 0.000617319 -54.0463 -52.3185 -133.862 -134.416 -47.9174 -48.3744
-49.0396 -47.76 -48.2588 -48.9665 -49.621 -47.2678 -95.0082 -74.6492 -48.757 -47.1135
-74.0874 -48.6812 -51.151 -51.5081 -50.6215 -99.5558 -111.155 -129.371 -119.695 -119.516

U 3 2021 float
20.0063 -0.0455625 -0.215763 20.0439 -0.0305674 -0.0740049 19.9291 -0.00632557 -0.0964619 19.9357 -0.0555271
-0.606298 20.0174 -0.059075 0.0399615 20.0177 -0.0589703 0.039995 20.168 -0.0778697 0.057533
20.2328 -0.0860094 0.0655762 20.2783 -0.0909349 0.149373 20.2909 -0.1154 0.263821 20.2098
-0.116735 0.208555 19.9545 -0.0470988 0.019848 19.9967 -0.0544364 0.0183607 20.0037 -0.0527217
0.00697444 19.8532 -0.0245745 0.0176374 19.852 -0.0213536 0.0141028 20.0059 -0.0524378 0.00189112
19.8544 -0.0199435 0.0096299 20.0044 -0.0516292 0.000515299 19.8535 -0.0183035 0.00873688 20.0026
-0.0508137 -1.3966e-05 19.8522 -0.0167595 0.00844046 20.0011 -0.0500586 -0.000292779 19.851 -0.0154309
0.00820962 19.9996 -0.0493798 -0.00047195 19.85 -0.0142745 0.00799772 19.998 -0.0487276 -0.000595857
19.8489 -0.013219 0.00781436 19.9963 -0.0480876 -0.000692648 19.8478 -0.0122602 0.00761993 19.9946
-0.0474611 -0.000727536 19.8468 -0.0113813 0.00753445 19.9927 -0.0468126 -0.000817486 19.8458 -0.0104569
0.00726033 19.8453 -0.00997695 0.00696151 19.9924 -0.0466035 -0.000858332 19.9996 -0.000340429 3.12657e-05
20 0 0 20 0 0 19.9996 -0.000340493 7.86123e-05 19.9983
-0.000786126 9.37766e-05 19.9984 -0.000795693 0.000278457 19.9942 -0.00154738 0.000367905 19.9941 -0.00151212
0.000999073 19.9788 -0.00278976 0.000335289 19.9796 -0.00311218 0.00357487 19.9465 -0.00541045 -0.00905588
19.9363 -0.00617429 -0.00796497 19.9389 0.00233697 -0.0143202 19.9277 -0.00536478 -0.0295 19.9062
0.00532738 -0.06099 20.2332 -0.0723396 0.00184925 20.0485 -0.028732 -0.0566427 20.2354 -0.0714147
0.00512224 19.9272 -0.0888697 0.0303338 20.0246 -0.118025 0.0817236 20.2325 -0.0859781 0.065057
19.8551 -0.0297847 0.0233554 19.3077 0.11959 0.0100902 19.3398 0.117056 0.0112132 19.3678
0.111353 0.0112742 19.3889 0.107065 0.0119611 19.4072 0.103282 0.0124687 19.4241 0.0997022
0.0126481 19.44 0.0963203 0.0126575 19.455 0.0931399 0.0125902 19.4693 0.090108 0.0124545
19.4823 0.0872349 0.0123447 19.497 0.0844316 0.0120653 19.5058 0.0829938 0.0118061 20
0 0 19.9996 -0.000341067 0.000137219 19.9985 -0.00079411 0.000489966 19.9945 -0.00151802
0.00171801 19.9801 -0.00323378 0.00602914 19.9197 -0.00873304 0.0107259 19.9195 -0.00789855 0.000995893
19.85 -0.0164696 -0.0957326 19.7934 -0.0204048 -0.0681509 19.9554 -0.050717 -1.02385 20.435
-0.0672509 -0.93475 20.216 -0.0529218 -0.509014 19.9305 -0.0555403 -0.635786 20.3097 -0.162702
0.453218 20.3101 -0.163579 0.456678 20.1 -0.248265 0.581603 19.9897 -0.23744 0.299816