# vtk DataFile Version 2.0
sampleSurface
ASCII
DATASET POLYDATA
POINTS 2021 float
-0.500032 0 0.11501 -0.499951 3.38813e-21 0.0392727 -0.789037 8.47033e-21 0.120673 -0.500013 -1.35525e-20
0.193965 1.00003 0 0.0485099 1.00003 0 0.0478584 0.475202 0 0.0353615
0.250044 1.41878e-20 0.0305359 0.2506 -5.42101e-20 0.117067 0.251301 0 0.203885 0.364989
0 0.203772 1.75002 0 0.113255 1.75002 0 0.0564279 2.50001 6.89146e-18
0.059229 2.21354 0 0.250758 2.50001 0 0.252875 3.25001 -3.47927e-17 0.0598775
3.25001 -1.69407e-21 0.253888 4.00001 5.60566e-18 0.0599857 4 0 0.253986 4.75
-1.79088e-17 0.0599988 4.75 8.47033e-22 0.253998 5.5 -2.79246e-17 0.0599999 5.5 -4.23516e-22
0.253999 6.25 1.01187e-17 0.06 6.25 0 0.254 7 2.93732e-17 0.06
7 0 0.254 7.75 -2.65294e-17 0.06 7.75 0 0.254 8.5
1.8923e-17 0.06 8.5 0 0.254 9.25 -2.88552e-17 0.06 9.25 -5.29396e-23
0.254 10 -2.64698e-23 0.254 10 0 0.06 -4.24997 0 0.0599042
-5 0 0.0599861 -5 0 0.253986 -4.24997 0 0.253912 -3.49995
0 0.0593815 -3.49994 0 0.253441 -2.74993 0 0.0570188 -2.74991 0
0.251316 -1.99991 0 0.0492276 -1.99987 0 0.242776 -1.24992 -1.69407e-21 0.03
-1.24985 1.23328e-17 0.222327 -1.24989 3.38813e-21 0.125756 -0.874924 2.08116e-17 0.03 -0.874929
0 0.122356 -0.124951 -8.47033e-22 0.03 -0.499941 0 0.03 -0.124922 -8.47033e-22
0.0385291 1.00021 0 0.231242 0.625368 0 0.203537 0.25004 -2.11758e-22 0.03
1.75003 0 0.247334 1.92873 1.69407e-21 0.441438 2.50001 0 0.447397 3.25
-1.69407e-21 0.447898 4 0 0.447986 4.75 0 0.447997 5.5 -4.23516e-22
0.447999 6.25 4.23516e-22 0.447999 7 0 0.448 7.75 -1.05879e-22 0.448
8.5 0 0.448 9.25 0 0.448 10 -2.64698e-23 0.448 -5
-8.47033e-22 0.447985 -4.24997 0 0.447919 -3.49993 0 0.4475 -2.74988 0
0.445609 -1.9998 6.77626e-21 0.437758 -1.24969 1.61411e-17 0.417681 -1.24976 -6.77626e-21 0.31973
-0.875161 7.70461e-18 0.216228 -0.875403 0 0.312476 -0.499924 -8.74138e-19 0.250039 -0.312433
0 0.250037 -0.312436 0 0.200025 -0.499924 0 0.200026 0.250062 3.38813e-21
0.24921 0.250039 -1.69407e-21 0.250046 0.250032 0 0.300069 0.437526 3.05948e-18 0.300066
0.625026 0 0.30005 1.00072 -8.23994e-18 0.326497 1.00196 0 0.423 1.75013
0 0.439575 1.75013 1.77877e-20 0.448245 1.00135 0 0.537141 1.00002 0
0.61834 1.74999 2.71051e-20 0.633055 2.49999 -3.38813e-21 0.641448 3.25 0 0.641907
4 -1.69407e-21 0.641985 4.75 -8.47033e-22 0.641996 5.5 -4.23516e-22 0.641998 6.25
0 0.641999 7 0 0.641999 7.75 0 0.642 8.5 5.29396e-23
0.642 9.25 -5.29396e-23 0.642 10 0 0.642 -5 0 0.641985
-4.24997 -1.69407e-21 0.641926 -3.49993 0 0.641557 -2.74988 0 0.639897 -1.99989
6.77626e-21 0.63382 -1.25099 2.55465e-18 0.614606 -1.25 -2.71051e-20 0.515981 -0.878244 0
0.50789 -0.875961 2.71051e-20 0.459694 -0.875609 0 0.410432 -0.498432 0 0.400603
-0.498071 -1.70762e-18 0.413126 -0.450805 0 0.413349 -0.45095 0 0.400955 0.250009
1.89735e-19 0.412703 0.25 2.71051e-20 0.425212 0.296872 1.00289e-18 0.425187 0.343754 -2.71051e-20
0.425153 0.343763 0 0.400146 0.250006 0 0.400175 1.00162 1.41488e-17 0.520353
-2 4.23516e-22 0.820145 -2.09502 -2.11758e-22 0.830091 -2 0 0.829497 -1.25123
0 0.813251 -1.25126 0 0.713737 -1.25101 6.77626e-21 0.62198 1.00059 0
0.714169 1.00094 0 0.809205 1.75018 0 0.82775 2.5 0 0.835521
3.25 0 0.835917 4 -1.69407e-21 0.835986 4.75 -8.47033e-22 0.835996 5.5
0 0.835998 6.25 0 0.835999 7 0 0.835999 7.75 0
0.836 8.5 0 0.836 9.25 0 0.836 10 0 0.836
-5 -8.47033e-22 0.835986 -4.24997 0 0.835935 -3.49995 0 0.835616 -2.74991
0 0.83419 -0.970118 0 0.703382 -0.87455 0 0.699864 -0.874264 -2.71051e-20
0.649852 -0.874033 -2.71051e-20 0.599873 -0.49698 0 0.599585 -0.497345 -9.21572e-19 0.612046
-0.450014 0 0.611892 -0.44938 2.71051e-20 0.599454 -2.00002 0 0.84097 -1.84639
-3.38813e-21 1.02215 -1.25185 0 1.01276 -0.896512 -3.38813e-21 0.900668 -0.908183 6.77626e-21
0.801076 -0.904022 -1.86347e-20 1.00093 0.624925 0 0.799916 0.249931 0 0.799891
0.249978 0 0.899916 0.249997 0 0.999939 0.999987 0 0.999957 1.75061
-2.1684e-19 1.02409 2.50003 0 1.0296 3.25 -1.69407e-21 1.02993 4 0
1.02999 4.75 0 1.03 5.5 0 1.03 6.25 2.11758e-22 1.03
7 0 1.03 7.75 0 1.03 8.5 5.29396e-23 1.03 9.25
0 1.03 10 0 1.03 -5 0 1.02999 -4.24998 0
1.02994 -3.49996 -8.47033e-22 1.02968 -2.74996 0 1.02849 -2.00026 0 1.02458
-0.87482 0 0.799893 -0.87491 0 0.899919 -0.49993 0 0.799862 -0.499958
7.6233e-19 0.849889 -0.312476 0 0.849885 -0.312472 0 0.799853 -1.25001 8.04681e-21
1.19601 -0.499979 5.29396e-23 1.10737 -0.731886 2.11758e-22 1.19997 -0.499981 0 1.19997
-0.124987 0 0.999933 -0.477759 -5.29396e-23 0.999933 -0.487556 -1.45584e-22 1.09995 0.250008
0 1.19997 1 0 1.19997 1.7507 0 1.22203 2.50003 -1.35525e-20
1.22368 3.25 0 1.22394 4 0 1.22399 4.75 4.23516e-22 1.224
5.5 0 1.224 6.25 2.11758e-22 1.224 7 0 1.224 7.75
1.05879e-22 1.224 8.5 0 1.224 9.25 0 1.224 10 2.64698e-23
1.224 -5 4.23516e-22 1.22399 -4.24999 -4.23516e-22 1.22395 -3.49998 0 1.22374
-2.75001 0 1.22279 -2.00077 0 1.21965 -1.24997 4.23516e-22 1.19997 -0.499969
-5.29396e-23 0.999933 -0.874942 0 0.999936 -0.499979 -1.32349e-23 1.09995 -2.75001 0
1.36967 -3.18711 4.23516e-22 1.41751 -2.75001 4.23516e-22 1.4171 -2.00072 3.38813e-21 1.29692
-2.00065 0 1.41474 -1.25823 6.35275e-21 1.40014 -0.980416 0 1.39998 -0.499986
0 1.39998 0.250009 0 1.39998 1 0 1.39998 1.75054 0
1.41682 2.50002 -1.35525e-20 1.41776 3.25 0 1.41796 4 4.23516e-22 1.41799
4.75 0 1.418 5.5 0 1.418 6.25 0 1.418 7
0 1.418 7.75 0 1.418 8.5 0 1.418 9.25 0
1.418 10 0 1.418 -5 0 1.41799 -4.24999 0 1.41797
-3.49999 -4.23516e-22 1.41781 -1.24998 0 1.39998 -2.80392 1.32349e-23 1.61143 -2.75
-1.32349e-23 1.6114 -2.0003 0 1.60983 -1.25396 2.64698e-23 1.60004 -1.12789 2.64698e-23
1.59999 -0.49999 1.05879e-22 1.59999 0.250008 0 1.59999 1.00001 4.23516e-22 1.59999
1.75038 0 1.61122 2.50002 0 1.61184 3.25 -4.23516e-22 1.61197 4
-4.23516e-22 1.61199 4.75 0 1.612 5.5 0 1.612 6.25 0
1.612 7 0 1.612 7.75 5.29396e-23 1.612 8.5 2.64698e-23 1.612
9.25 -1.32349e-23 1.612 10 -1.32349e-23 1.612 -5 0 1.61199 -4.24999
0 1.61198 -3.49999 0 1.61187 -1.24999 0 1.59999 -2.75 -1.32349e-23
1.63714 -2.64195 -2.11758e-22 1.80559 -2.00012 -8.47033e-22 1.80492 -1.25741 0 1.80004
-1.19082 -7.94093e-23 1.8 -0.499992 1.05879e-22 1.79999 0.250006 2.11758e-22 1.79999 1
0 1.8 1.75023 0 1.80561 2.50001 3.38813e-21 1.80592 3.25 0
1.80599 4 0 1.806 4.75 2.11758e-22 1.806 5.5 0 1.806
6.25 0 1.806 7 0 1.806 7.75 0 1.806 8.5
2.64698e-23 1.806 9.25 0 1.806 10 0 1.806 -5 0
1.806 -4.25 -2.11758e-22 1.80599 -3.49999 0 1.80594 -2.75 -1.05879e-22 1.8057
-1.24999 0 1.8 -2 -4.76456e-22 1.98532 -1.20969 -1.65436e-23 2 -0.499993
0 2 0.250006 0 2 1 0 2 1.75 0
2 2.5 0 2 3.25 0 2 4 0 2
4.75 -1.05879e-22 2 5.5 0 2 6.25 0 2 7
5.29396e-23 2 7.75 0 2 8.5 0 2 9.25 0
2 10 -1.32349e-23 2 -5 2.21817e-18 2 -4.25 1.05879e-22 2
-3.49999 0 2 -2.74999 0 2 -1.99999 -5.29396e-23 2 -1.24999
3.30872e-24 2 0.0956945 -5.42101e-20 0.203879 0.0632748 0 0.203876 0.0625511 0
0.250042 -0.403589 6.77626e-21 0.40138 -0.405779 7.7927e-19 0.38799 -0.406379 -6.77626e-21 0.375196
-0.499567 -1.35525e-20 0.375265 0.250006 -6.50521e-19 0.375144 0.156247 0 0.375155 0.156237
9.41901e-19 0.400212 0.203129 0 0.400201 0.249796 0 0.59991 0.249852 -1.0842e-19
0.587433 0.202953 0 0.587417 0.202888 6.50521e-19 0.599901 0.625121 -6.77626e-21 0.499953
0.717439 6.77626e-21 0.504955 0.625095 6.77626e-21 0.475379 0.343596 1.0842e-19 0.599918 0.343639
0 0.574939 0.296781 0 0.574964 0.249926 0 0.574977 0.62499 -4.2826e-18
0.549927 0.624917 4.55365e-18 0.599925 0.203133 0 0.412725 -0.449046 0 0.587135
-0.496581 5.42101e-20 0.587161 0.625036 -9.32414e-18 0.40006 0.625067 1.13164e-18 0.450032 0.249704
0 0.624881 0.155871 0 0.599866 0.155839 1.95156e-18 0.624853 0.249886 1.35525e-20
0.749873 0.062411 0 0.749846 0.0624478 -4.26227e-18 0.799869 -0.312472 0 0.749804
-0.499901 -3.38813e-21 0.749824 -0.691227 0 0.30453 -0.499912 3.02221e-18 0.300065 -0.875784
-3.11708e-18 0.361353 -0.592465 -2.71051e-20 0.40036 -0.499854 0 0.350135 -0.687111 1.35525e-20
0.350117 -0.68656 -2.71051e-20 0.40021 0.437526 -1.35525e-20 0.400108 0.437522 6.77626e-21 0.350086
0.250015 -2.51399e-18 0.35011 0.625027 3.38813e-21 0.350064 -0.592287 0 0.425286 -0.498048
0 0.425444 -0.873902 5.42101e-18 0.54992 -0.496663 0 0.574746 -0.591532 0
0.574798 -0.591729 0 0.599734 -0.149108 0 0.406489 -0.149477 -5.29396e-23 0.403592
-0.149678 0 0.406489 -0.451876 -2.1684e-18 0.499977 -0.451579 0 0.487563 -0.498366
0 0.487552 -0.498515 -1.0842e-19 0.499993 0.437553 0 0.450075 0.437532 -6.07153e-18
0.425113 0.254621 -1.25361e-19 0.496697 0.26485 -5.42101e-20 0.498023 0.264831 0 0.496529
0.254636 -2.30393e-19 0.49668 0.570241 0 0.499932 0.437665 -2.71051e-20 0.474991 0.437859
-2.71051e-20 0.49988 0.437372 -1.0842e-19 0.599915 0.249722 3.25261e-19 0.649874 0.43732 -5.42101e-20
0.649899 0.624872 0 0.649914 0.624883 -3.95734e-18 0.699913 0.43734 6.83047e-18 0.699894
0.249817 0 0.699869 -0.592227 0 0.624743 -0.498071 -2.71051e-20 0.624658 -0.499769
6.77626e-21 0.69979 -0.687025 0 0.699824 -0.150854 -1.03677e-18 0.599678 -0.151059 -6.77626e-21
0.605522 -0.127339 6.77626e-21 0.605681 -0.127867 0 0.599582 -0.406139 -4.40457e-20 0.699754
-0.406113 0 0.674749 -0.499634 0 0.674774 -0.18433 -4.23516e-22 0.674527 -0.163626
-4.23516e-22 0.678958 -0.165125 0 0.674537 -0.171868 4.23516e-22 0.674524 -0.14924 3.34737e-19
0.400169 -0.125737 0 0.400165 -0.12551 0 0.393854 -0.149076 -2.11758e-22 0.393877
-0.499925 -2.61564e-18 0.325088 -0.406241 0 0.325087 -0.4062 0 0.300069 -0.124901
0 0.300062 -0.218633 -3.27294e-18 0.299673 -0.218596 1.35525e-20 0.324664 -0.124851 0
0.325085 -0.126061 7.86047e-19 0.406473 -0.0785222 1.30782e-18 0.400166 -0.126118 3.38813e-21 0.41275
-0.0785648 0 0.412729 0.240678 1.0842e-18 0.500153 0.252614 -2.1684e-19 0.498317 0.252386
1.0842e-19 0.496231 0.241035 0 0.496114 0.228892 -1.35525e-20 0.496204 0.228835 6.77626e-21
0.498715 0.229819 2.71051e-20 0.500074 0.25248 0 0.499935 0.240657 -1.6263e-19 0.500957
0.264863 0 0.500154 0.264689 0 0.500951 0.437443 0 0.549896 0.437406
[...]
POINT_DATA 2021
FIELD attributes 2
p 1 2021 float
2.00771 1.43729 2.37259 4.35857 0.0508089 0.0486966 -4.20677 -6.04265 -7.68814 -6.16762 -4.32697
0.492778 0.460663 0.110144 0.323882 0.17267 0.00199181 0.0248865 0.00415926 0.0122641 0.00861959
0.0140384 0.00414399 0.0089728 -0.000428159 0.00387183 -0.00203499 0.00181066 -0.00171735 0.00173641 -0.00107709
0.00183455 9.78465e-05 0.00319983 0 0 0.618506 0.614043 0.613892 0.618222 0.639429
0.638534 0.709513 0.706382 0.931631 0.928382 1.64532 1.76746 1.78265 2.2397 2.48084
-4.05534 1.36739 -4.10815 0.642366 -0.125024 -6.03245 0.568525 0.439483 0.187185 0.0258294
0.00385416 0.00674734 0.00372355 -0.000245544 -0.00152746 -0.000912337 -0.000881532 0.00242923 0 0.613462
0.617455 0.636124 0.697351 0.907396 1.96232 2.03474 3.1316 3.87754 7.31602 -3.31904
-1.06018 4.57823 -5.73623 -5.72844 -2.29309 0.309424 0.809842 1.0256 0.927788 0.518351
0.514195 0.838768 0.868292 0.425459 0.165141 0.0198506 -0.000955794 0.00394842 0.0025733 -0.000798859
-0.0018543 -0.00108982 -0.000804499 0.00255793 0 0.612774 0.616268 0.632491 0.684668 0.867059
1.85707 2.14274 5.14436 5.59798 4.83387 32.5819 36.4715 52.0367 45.9886 4.7261
4.90625 3.40738 3.45603 2.67717 4.02715 0.832658 0.813037 0.792519 0.810325 1.40352
1.79298 1.85233 0.984622 0.475023 0.347007 0.125378 0.0110703 -0.00169753 0.0054516 0.00523453
0.00198464 0.000683808 0.0010563 0.00171189 0.00331807 0 0.611901 0.61479 0.628063 0.669792
3.26264 3.76223 4.69489 4.77179 34.3956 32.7339 44.6661 50.8085 0.806489 0.786369
0.94573 1.71272 2.63789 1.14965 0.0640347 -4.90681 -5.30504 -2.74847 -0.23407 0.187392
0.0707709 -0.00761307 -0.0124523 -0.00192055 0.000284967 -0.00166265 -0.00222187 -0.00135169 -0.000165567 0.000972532
0 0.610934 0.613171 0.623239 0.653807 0.745103 2.75784 1.74268 5.21193 3.31272
0.587603 -0.638397 0.70306 0.319321 0.318419 0.148595 -1.70145 0.684155 0.290008 -0.972635
-0.397524 0.0946272 0.0626321 -0.00464738 -0.0121775 -0.00190515 0.000829893 -0.000951407 -0.00151482 -0.000645178
0.000528633 0.00122818 0 0.609972 0.611563 0.618394 0.637671 0.681521 0.697808 0.834355
1.16669 0.333006 0.626433 0.617657 0.622804 0.661224 0.630268 0.571397 0.388626 0.0640481
-0.563349 -0.380462 0.0432323 0.0572066 -0.00604949 -0.0164448 -0.00533634 -0.00151111 -0.00277852 -0.00303552
-0.00193624 -0.000602362 0.000180244 0 0.609111 0.610111 0.613973 0.570743 0.611012 0.611057
0.595113 0.499993 0.431385 0.0811807 -0.434411 -0.351063 -0.00359395 0.0460587 -0.00952143 -0.020033
-0.00739403 -0.0024881 -0.00333765 -0.00337583 -0.00215522 -0.000757258 6.69265e-05 0 0.608436 0.608941
0.610431 0.499486 0.610077 0.599492 0.574749 0.462208 0.43182 0.0901674 -0.364183 -0.334751
-0.0299313 0.041004 -0.00986224 -0.0210791 -0.00814071 -0.00290599 -0.00364796 -0.00360241 -0.00232939 -0.000915828
-6.74583e-05 0 0.608 0.608161 0.608089 0.603658 0.461084 0.568464 0.429644 0.093137
-0.341819 -0.329468 -0.0381919 0.0394803 -0.00993422 -0.0214863 -0.00850462 -0.00314258 -0.00380947 -0.00369429
-0.00237707 -0.000948391 -8.59566e-05 3.14504e-05 0.607847 0.60788 0.607245 0.601134 0.567952 0.448753
-10.2817 -11.1383 -11.7934 70.4544 60.0202 43.8386 29.6726 2.83365 1.60284 4.28775
4.97394 3.98204 4.38935 5.96082 5.18584 2.03766 1.74205 2.15581 2.88002 3.58984
3.23598 3.80074 2.25304 1.90593 5.99446 56.2974 39.485 1.93813 2.27734 3.49523
4.48446 1.99232 -4.57653 -11.2632 -9.87223 -3.14189 8.49619 7.0068 11.9008 4.75622
17.472 20.8176 9.14201 10.5255 2.58077 1.46889 0.92944 1.6414 19.7417 36.9312
5.62395 39.6836 20.355 18.846 -59.1591 -58.9211 -59.1562 68.4994 68.4089 47.5923
44.8278 3.44763 3.14038 -5.21061 0.231546 0.0861832 -5.26081 2.60039 4.00895 3.95405
2.82504 1.72984 1.71602 1.61069 0.930712 0.722343 -1.42704 17.0319 28.1414 13.3281
7.29469 -57.1021 -56.8577 -59.5035 -59.4257 13.9263 19.166 18.5195 -46.2035 -42.6799
-44.3639 -45.0831 -58.6434 -57.9084 -57.8808 -58.0279 16.609 15.8562 11.9846 -29.3889
-28.0261 -45.4752 -37.1136 -59.2792 -46.0482 -59.1498 -48.2738 10.9722 4.20926 10.504
11.8502 9.01436 9.28795 9.57871 4.43009 11.0958 0.787002 0.60991 3.70113 3.44016
4.07117 4.31322 47.7898 68.3846 -59.5279 -57.0248 6.44207 11.1044 -51.8752 -53.1083
-59.0922 4.40897 6.22036 6.39291 6.45769 -31.4303 -40.0872 -49.3 -29.7038 64.431
60.8119 41.677 41.4279 -44.0829 -56.3682 -11.5298 -8.56347 -0.508631 -24.4852 -42.5608
43.0218 44.3508 64.3545 66.5246 -52.3176 -50.4296 -51.1823 0.200213 -9.76402 -12.825
-11.7925 -21.8035 -25.0386 -58.5465 44.0675 21.8705 22.167 11.7142 12.0295 12.2076
13.1576 22.0462 44.5405 10.816 12.4796 11.9182 13.258 -59.2931 -59.2754 -58.6874
-58.6745 -58.1204 -57.5393 -57.1876 45.8454 66.8573 -58.9717 -59.1424 -59.5727 -58.885
-29.6052 -34.8961 -32.6246 -13.5421 -1.56306 -4.90322 -50.8251 -50.5035 -58.5644 -12.897
0.255198 0.123878 -13.1523 -58.8717 -57.2585 -51.4996 -12.2122 -9.91202 -3.44544 1.75395
-7.47056 -5.77797 -18.5933 -38.2931 -41.5309 -36.4441 -52.2962 -53.4053 -53.1181 -4.21425
-17.4108 -18.2349 -4.92023 -56.4572 -52.0349 -56.4511 -3.56847 -9.20511 -16.4155 -11.3303
67.5755 46.9076 -54.7009 -54.8728 -57.3288 -57.1806 -56.72 -54.1938 -57.6245 -53.3248
-56.4784 -59.4792 -59.6013 -59.6525 -32.0902 -76.9559 -95.9869 -101.013 -103.585 -103.168
-48.9071 -50.3602 -54.4598 -48.4072 -50.271 -98.4758 -99.6913 -71.4793 -34.5282 -58.9814
-59.7657 -59.4491 -56.8028 -57.6968 -57.8775 -57.7837 -58.1537 7.19288 6.20818 9.0795
-56.4517 -56.2157 -56.4223 -55.8449 -55.9595 -56.3956 -56.8044 -55.6569 -55.6434 1.81864
1.60552 0.449118 0.971215 4.0164 4.42638 1.23747 -56.3988 -56.8279 -57.4806 5.78067
6.58588 2.69404 0.791706 3.101 -31.72 -37.8191 -37.056 -31.2979 -55.039 -55.5491
-58.5841 -58.232 -55.5167 -56.3461 -38.734 -43.1267 -42.919 -36.7192 -46.3025 -50.3978
-53.4577 -53.5786 -52.33 123.627 131.484 146.817 146.905 -58.6806 -56.7908 -57.1151
-58.3927 -58.3196 4.73072 2.48805 3.40367 4.97261 -9.6467 -3.92403 -5.90918 -8.85047
-11.7128 -38.8263 -36.6502 -25.3231 -27.0719 -31.8487 -38.8392 -24.4263 -24.4917 31.1264
41.2887 52.1416 37.9703 23.1077 19.0708 34.2221 26.1466 0.689192 0.847732 2.00236
34.0278 24.8679 16.9741 21.9894 2.7035 3.63614 4.27149 4.38493 3.40349 6.37691
6.5018 4.33418 -9.29219 -8.15897 -1.34304 -10.1815 14.712 9.16587 10.8421 -55.0613
-57.5112 -57.6467 -55.2681 -82.4211 -81.1608 -84.3562 -47.9064 -12.6001 -18.2464 -27.5234
-56.2998 -53.0613 -55.6279 -56.745 -74.196 -73.8689 -58.6776 -59.9219 -49.7853 -48.2207
-50.6419 -50.6078 3.60234 3.66392 -0.856799 5.95779 5.60339 4.5924 5.26583 5.72666
6.10527 -54.6375 -54.0132 -68.7019 -67.9484 78.9829 94.0565 85.6485 112.088 106.39
88.8293 90.1519 161.841 164.162 153.335 121.624 98.4143 104.361 97.3061 117.632
-12.8406 -26.8255 -31.0576 -5.84272 -26.0336 -52.295 -41.7442 -6.31242 93.7641 101.265
86.8438 78.3112 96.746 88.4396 107.65 148.49 158.24 167.427 165.167 106.67
102.947 159.655 -32.8004 -8.07458 -38.4697 -28.7274 -48.1862 140.236 140.103 115.631
110.615 110.267 115.532 139.624 139.005 108.15 167.233 170.83 172.018 172.302
173.729 186.66 186.846 174.833 173.287 -32.8383 -40.1031 -32.7842 -56.8615 -51.0131
-42.5555 -41.7517 -40.4522 -25.3838 3.00141 -2.29034 -0.281283 173.407 175.351 187.2
172.383 186.519 187.16 175.24 172.189 179.613 181.773 170.131 168.9 179.918
167.906 171.118 182.436 -52.7721 -37.666 -36.3447 -56.205 -56.1466 -56.3167 -36.0895
-46.0254 -36.1975 -36.707 -45.6899 -45.6527 -3.3851 -9.16161 -24.8503 -24.8982 -32.7576
-43.4875 -32.6877 -32.3362 -42.8824 -20.8721 -18.4809 -20.2807 115.453 140.168 138.16
139.068 114.715 109.345 170.056 169.933 170.501 167.769 136.436 108.437 113.614
137.186 -57.7271 -54.6915 -53.3379 -53.1947 -56.2346 -46.0369 90.0306 93.2528 78.4498
-15.8677 -7.05791 -6.85896 -20.9822 54.5154 56.4335 70.1392 73.728 -56.2494 -55.4856
-55.8105 -56.2735 -57.456 -57.6768 -57.8178 -57.9416 -56.8506 -56.9251 -56.5671 -56.6892
-135.672 -109.542 -78.2887 -95.5418 -97.909 -98.929 -98.921 -82.9939 -79.1252 -92.689
-71.1948 -86.274 -133.935 -137.394 -129.129 -96.4003 -97.1583 -55.4855 -54.9464 -55.6561
-56.7335 -56.9966 -54.5728 -54.5001 7.04299 7.60914 13.879 16.5815 13.9498 -51.1184
-50.3607 -45.699 -45.9596 -46.7104 -46.509 -46.4825 -46.273 12.9147 12.649 16.8835
8.10856 7.89644 9.49442 9.98104 10.0105 8.34519 7.14474 7.92278 12.2849 15.6357
13.6211 0.673722 -1.00925 -3.15518 6.84151 5.9899 4.86882 6.25507 6.95423 -52.6416
-53.5319 -56.6738 -55.9808 -48.6466 -49.662 13.7739 15.8116 17.2379 -47.3682 -50.1954
-50.3158 -47.071 -46.2554 11.2047 10.9394 10.9819 9.41027 6.68565 -7.17848 -5.90439
5.42673 6.07186 6.0401 -48.5178 -48.8744 146.412 148.432 140.83 136.892 113.195
118.208 125.623 121.055 184.605 185.879 182.179 178.422 -56.3658 -56.2927 -53.6431
-53.5514 169.664 183.376 185.072 173.018 174.472 186.584 171.055 182.162 169.652
179.301 -16.7235 -19.027 -23.6895 -27.9188 -26.5379 -22.7664 -8.24717 -2.96977 -3.43277
-8.58521 -13.5816 -13.17 -1.04442 -9.07014 -9.94053 -15.0415 -18.1605 -8.27641 -9.01217
-24.9754 -20.263 -9.6479 -0.753772 -3.04185 5.97634 -3.49717 5.95861 6.8079 3.19042
3.77608 4.5118 4.10271 7.66682 5.98983 3.94289 5.81501 -18.9019 -15.9378 -26.2919
-21.3936 -56.8521 -58.5296 -59.1686 -59.0641 3.0054 3.08409 5.06676 5.52938 4.32903
4.91912 -14.6527 -40.4151 -57.3791 -65.6048 -53.3972 -32.04 -59.3859 10.8117 10.2616
10.2854 -2.73782 0.0126797 11.9652 17.2557 9.3497 23.9342 20.7632 10.4983 1.53066
6.78231 8.27685 13.0104 11.4139 6.56556 -53.7411 -44.1754 -49.934 -12.996 -43.7731
-24.8916 -60.4605 -83.5536 108.516 92.5479 106.082 108.199 112.622 111.723 172.9
172.024 173.275 172.593 171.292 185.97 185.971 185.206 -58.6428 -58.8533 174.506
-56.7908 -56.7873 -57.5573 -57.7151 -57.421 -56.5832 -151.185 -137.996 -137.847 -134.626
-158.883 -137.722 -133.26 -133.59 -120.002 -115.538 -80.9164 -73.3485 -73.6443 -71.0818
-119.769 -121.567 -57.274 -56.2826 -55.2849 -57.5756 9.74942 7.33711 10.822 8.30244
11.1435 12.1887 12.5705 13.5367 14.3469 -55.6253 -54.6807 -56.8702 -55.6641 -53.6369
-53.391 -53.4824 -55.4671 -6.16505 -0.636762 -1.61583 -4.82311 9.10131 9.43953 6.64963
5.69861 7.34967 9.4195 8.68169 6.49774 1.2138 8.00645 6.89041 6.73316 8.75104
10.5411 9.34035 12.1944 11.4741 -55.1005 -55.5625 -55.6883 -55.8188 -55.9588 -55.7866
-55.2733 -53.2314 -54.6134 -54.6221 -54.6108 -51.4226 -52.7815 -73.7083 -72.8659 -57.6628
-60.0388 -77.4072 -68.3817 -78.0555 -124.68 -129.486 -137.034 -79.3819 -97.3525 -107.527
-80.2031 -98.748 128.679 113.509 148.444 151.676 -55.2915 -54.5268 -55.6356 -55.6082
-53.7842 143.927 167.905 146.183 -49.5273 -48.7409 -49.1633 -49.896 -49.7201 -49.7378
-49.6675 -48.2562 -8.1269 -9.41971 -11.861 -10.9745 -14.7687 -16.9629 -19.0881 -16.8903
-17.8201 74.844 85.5542 -59.905 51.1208 76.5635 65.0304 75.3612 60.8316 13.3969
10.377 45.3217 36.3497 8.14963 9.02292 3.44628 5.12601 4.93202 7.55893 6.50797
6.90806 7.29631 8.07379 -53.222 -52.7824 -52.4358 -53.0206 -1.12907 -0.639159 -1.20942
2.18838 5.6065 5.03608 7.02547 6.44319 -51.3133 -51.7659 -51.4678 138.143 136.208
171.202 184.783 189.081 189.368 186.864 185.341 -56.4748 -56.1612 -56.4829 -56.2648
-53.7824 -46.1875 -46.9932 -47.6049 -46.8353 -47.1695 -48.4202 -56.4988 -56.5201 -57.0969
-57.903 -57.6155 -57.597 -57.7782 -57.394 -55.8178 -116.159 -111.673 -136.038 -112.58
-134.777 -122.785 -124.224 -134.252 -56.5865 -58.0534 -56.4362 -55.297 13.9459 12.5333
11.54 12.7435 12.8801 13.54 -36.5176 -36.0236 -31.1563 -30.5631 -41.5893 -42.1581
-46.4862 -46.0703 -51.3318 -51.3836 -45.5448 -52.6487 -52.272 -6.34551 -1.09708 -11.6326
0.545168 1.9973 7.83011 7.3428 7.67051 4.13596 10.5664 7.14788 8.58629 10.1232
10.7816 10.6521 10.7944 12.5963 12.274 2.27127 12.3058 14.7339 15.915 3.58523
3.07371 2.80371 3.51136 -59.3 -58.4446 -53.0498 -57.0055 -44.5055 -43.9805 -39.8444
-44.316 -45.7469 -49.9661 -51.2292 -49.6245 -49.818 -49.6047 -47.1607 -52.488 -47.7455
3.9061 -48.218 -49.5078 140.906 131.697 129.33 129.322 129.703 114.19 106.755
188.659 188.138 187.138 -51.2772 -51.6201 -0.893405 -0.32931 0.678454 -29.2811 -30.1713
186.073 186.907 180.392 183.349 181.897 181.528 -32.9544 -28.816 -2.64401 -7.26695
-5.40848 -2.67612 -24.3273 -13.0843 -9.73855 -12.8535 -19.37 -4.58133 80.8549 56.5286
60.8938 21.0819 21.4584 68.0413 110.732 10.2158 7.20003 -2.39328 -2.66851 6.83937
7.62772 7.9024 6.12368 6.57071 24.5814 16.3613 -0.350091 19.8061 -1.88795 3.41933
8.11036 8.02837 68.0587 110.245 -55.2205 -56.3627 18.1722 91.2645 108.83 100.45
92.5431 108.133 109.224 126.625 134.363 143.23 -56.4973 81.2486 73.1902 49.9594
12.4561 18.3367 16.5205 -75.959 -57.3499 -57.3433 -57.3459 -55.5871 -55.5142 -60.1968
-55.7624 -60.1437 -60.7584 23.6115 -6.72984 5.82891 10.491 10.752 -1.65174 -1.75326
-2.91985 -56.1087 -54.6222 -1.24945 2.34258 2.64095 -58.0585 -57.5099 -56.589 8.03783
7.72058 4.08615 -57.17 41.5575 49.222 -67.5594 -59.7943 16.9431 14.4836 8.83591
6.72745 4.89691 8.35423 6.77873 -54.5574 -54.5188 -53.3089 -53.2445 -56.2935 -52.5657
-52.0755 -54.8051 -55.1197 -55.1013 -54.591 -55.6868 -55.253 -55.1227 -54.8535 4.36656
-52.0652 -57.9966 -57.0578 100.488 129.079 144.669 155.119 168.063 162.879 160.69
148.704 188.24 -53.4636 -54.4354 -52.0205 -7.05986 -10.0773 -2.84408 -50.1935 -50.2021
-50.2024 -50.4553 -53.664 -47.7854 -49.3005 -48.1641 -47.6281 -48.3067 27.5977 19.0165
-112.721 -120.498 -120.437 -121.063 -121.396 -74.0143 -96.6764 -74.017 13.5568 17.2607
-11.1088 11.9151 11.3539 -5.65483 -7.2533 3.93931 2.25508 0.769023 0.335579 -0.989805
-2.5613 -1.26759 3.9174 4.24745 0.207919 2.55854 4.22972 2.12819 0.993827 13.4837
17.8875 -50.5298 5.33117 12.6875 8.33274 16.4315 8.41775 11.0897 14.1468 15.9511
4.53427 4.72549 6.30465 5.74127 -2.36956 -4.33631 -6.65635 -6.55511 4.67968 1.55441
4.24357 9.40185 15.3331 16.533 8.19302 5.54159 2.90173 2.58886 7.01938 10.5091
11.1781 11.8505 10.9916 5.58094 -3.72435 5.45503 -2.96974 3.11062 -3.733 2.30601
10.9905 8.30599 12.383 6.82618 9.40567 11.3705 10.7433 10.4366 7.80531 8.53752
9.07064 9.32638 7.77271 7.23121 7.23518 5.8257 -5.90173 -9.45998 -7.61971 6.30872
5.68223 7.83825 6.08959 -9.61215 -11.3647 0.927459 6.95829 5.78736 -1.85304 5.55221
-138.172 -138.776 -138.931 10.4347 -56.087 -54.9158 -54.9735 5.04678 9.75135 5.13767
8.29244 11.1558 -56.2482 -56.1904 -55.5231 -55.1637 -61.06 -60.5805 -61.0551 -68.9381
-116.384 -120.577 -113.97 -121.188 -49.5008 -50.0048 -48.0403 -47.7547 -48.0278 -47.7209
-14.5975 -14.599 -17.0057 -53.052 -52.8593 -52.5913 5.05146 1.39564 4.91561 4.88766
-52.371 -52.8332 -52.9901 141.65 151.025 -55.9316 -51.2658 13.5324 14.1905 11.4307
7.00109 11.3769 18.7061 4.2516 3.37784 4.69635 3.73625 -53.6419 -57.5898 -57.3824
-55.652 7.703 15.0872 11.0238 4.03215 4.19421 10.0699 8.7468 9.43776 8.54616
10.3421 12.4213 10.2128 5.78888 8.54539 8.18159 -54.6287 -50.637 -49.0632 91.3037
80.3923 84.3077 66.9151 72.8682 -4.94607 -3.03911 0.203522 -1.61481 7.63903 8.14146
7.72288 8.21891 8.00644 7.50723 7.02112 116.884 106.844 94.8027 -73.9426 -57.5763
-56.3308 -55.195 -55.0496 -54.6749 -54.6558 163.506 139.797 161.918 162.029 7.97614
4.88358 10.95 11.6708 7.24799 8.5692 7.48801 6.9092 6.18581 2.69951 -2.52461
4.79768 5.43414 6.00904 4.32393 6.66295 14.4898 8.96973 -13.324 15.6048 14.1826
7.44372 10.6058 16.0472 9.16733 -13.2262 -14.1428 -12.2121 -3.13489 -5.23663 -13.6751
7.20144 5.14255 -15.2321 -16.8503 7.1268 4.61369 -1.34093 -4.07552 -55.5284 -46.4979
13.3886 1.85535 0.154318 -0.237896 5.96707 5.52986 6.47207 6.03415 5.98912 5.57331
0.182872 6.21527 6.87364 -0.544989 5.67286 4.6943 7.14115 6.62027 6.04362 106.303
86.8267 122.078 123.872 5.03042 4.7527 3.28087 -55.7576 4.95817 5.96125 5.72938
-9.79023 -12.7673 -0.355882 6.17211 6.63737 5.39466 8.19008 5.1494 6.97316 3.76983
36.6033 -53.5725 -55.4972 -55.0321 -54.9724 -55.0458 -3.09531 -4.48741 -13.0677 -12.9354
-12.9575 -3.60843 9.32382 3.0033 5.85271 6.87443 2.40227 2.21992 -0.0787225 -1.03048
-11.3865 -5.6258 -4.46869 -11.7409 -4.50505 -12.6116 5.43578 -11.7715 -12.8927 -2.67952
1.13363 6.37917 6.39333 5.80268 8.80336 0.121853 6.61332 -3.22814 -1.19245 4.34784
-0.852389 7.11831 4.72264 -10.0907 8.92834 -0.734259 6.14572 1.00686 1.40118 4.82708
5.17568 4.27894 5.00561 3.01367 7.60468 8.81488 5.32692 5.93191 0.905125 3.38756
11.1045 5.56026 0.67051 -0.629002 3.47278 173.131 176.963 176.133 181.044 169.15
168.118 172.695 179.94 180.934 69.1276 73.355 54.4407 -56.714 -41.2993 -38.3522
-36.6047 -30.5985 -43.6316 -52.3512 -51.9938 -55.8288 -46.6966 100.672 154.499 162.133
155.277 147.023 -57.3125 -56.9214 -57.2316 -57.0246 -56.495 -56.9884 -55.5274 -55.823
-55.6648 4.35249 0.105008 171.268 -17.9134 186.03 190.268 189.421 -51.5157 -47.3518
182.77 185.899 186.073 -16.2086 -51.5422 85.3181 -55.3837 -55.5227 -55.8054 -55.7603
-49.5047 189.386 -1.94343 189.515 185.542 189.111 7.38794 -64.1153 110.444 109.75
-56.4042 4.48692 -52.3508 -53.6957 -52.4703 -139.13 138.778 -55.2137 159.142 -52.5988
-121.478 -121.392 72.4566 6.9182 2.51457 168.103 164.718 -15.3462 139.874 191.116
190.015 185.418 189.452 190.802 189.8 172.821 191.173 186.799 189.969 191.207
0.618522 0.614049 0.639419 0.708644 0.922604 1.62592 2.21078 -3.98384 1.35449 0.016272
-4.10193 -5.86871 0.405856 0.0889971 -0.00279476 0.00406424 0.00933906 0.00489969 0.000250881 -0.00143976
-0.00119526 -0.00060267 0.000499072 0.000453114 -54.6127 -52.8416 -134.838 -135.407 -48.577 -49.0128
-49.643 -48.4351 -48.9064 -49.576 -50.192 -47.9765 -95.2201 -74.7823 -49.3813 -47.7905
-74.2282 -49.311 -51.6552 -52.0146 -51.1481 -99.4142 -111.489 -130.323 -120.575 -120.393

U 3 2021 float
20.0063 -0.0471215 -0.215639 20.0439 -0.0319468 -0.0739838 19.929 -0.00723751 -0.0965083 19.9357 -0.0574602
-0.606406 20.0178 -0.0614736 0.0399897 20.0182 -0.061366 0.0400195 20.1684 -0.0808407 0.0575409
20.2332 -0.0892292 0.0655787 20.2787 -0.0944969 0.149659 20.2908 -0.120231 0.264506 20.2099
-0.121359 0.209265 19.955 -0.0490438 0.0200597 19.997 -0.0566899 0.0184917 20.0039 -0.0549884
0.00711664 19.8541 -0.0256007 0.0180336 19.8528 -0.0222618 0.0144954 20.0061 -0.0546906 0.00206604
19.8553 -0.0207795 0.0100307 20.0046 -0.053821 0.000726806 19.8544 -0.0190431 0.00920354 20.0029
-0.0529342 0.00021588 19.853 -0.0173969 0.00897027 20.0013 -0.0521047 -5.87034e-05 19.8519 -0.0159747
0.00879142 19.9998 -0.0513607 -0.000246749 19.8508 -0.0147415 0.00861215 19.9982 -0.0506521 -0.00038865
19.8497 -0.0136251 0.00844064 19.9965 -0.0499586 -0.000506859 19.8487 -0.0126143 0.008246 19.9949
-0.0492832 -0.000562727 19.8476 -0.0116875 0.00815922 19.9929 -0.0485801 -0.000675977 19.8466 -0.0107103
0.00787956 19.8461 -0.0102019 0.00757466 19.9926 -0.048348 -0.000733166 19.9996 -0.000355575 3.12186e-05
20 0 0 20 0 0 19.9996 -0.000355645 7.85318e-05 19.9983
-0.00082103 9.39636e-05 19.9984 -0.000831055 0.000278731 19.9942 -0.00161809 0.000368078 19.9941 -0.00158143
0.00100047 19.9787 -0.00293801 0.00033576 19.9795 -0.00326349 0.00358024 19.9464 -0.0058614 -0.00906325
19.9362 -0.00656478 -0.00800549 19.9388 0.00183794 -0.0143449 19.9276 -0.00605338 -0.029528 19.906
0.00460779 -0.0610868 20.2336 -0.0750113 0.00189259 20.0485 -0.0300894 -0.056634 20.2357 -0.0741298
0.00518375 19.9282 -0.0920582 0.0314039 20.025 -0.122144 0.0824915 20.2329 -0.0891958 0.0650577
19.8562 -0.0310016 0.0237573 19.3037 0.124694 0.010696 19.3361 0.121993 0.0117754 19.3645
0.116093 0.0117916 19.3861 0.111733 0.0124911 19.4049 0.107846 0.0130252 19.4223 0.104134
0.0132334 19.4387 0.100616 0.0132639 19.4541 0.0973063 0.013208 19.4687 0.0941409 0.0130791
19.4821 0.0911437 0.0129763 19.4973 0.0881585 0.0127037 19.5063 0.0865931 0.0124472 20
0 0 19.9996 -0.000356189 0.000137205 19.9985 -0.00082973 0.000490355 19.9945 -0.00158635
0.00172073 19.98 -0.00338772 0.00603891 19.9196 -0.0091138 0.0107079 19.9193 -0.00827304 0.000942239
19.8499 -0.0173237 -0.0958902 19.7933 -0.0212532 -0.0683214 19.9555 -0.0531362 -1.02374 20.4357
-0.0710903 -0.93406 20.2164 -0.0562352 -0.509217 19.9305 -0.0575063 -0.635908 20.3095 -0.169107
0.454854 20.3098 -0.170014 0.458331 20.1007 -0.257389 0.584641 19.9916 -0.245892 0.302815