# vtk DataFile Version 2.0
tracks
ASCII
DATASET POLYDATA
POINTS 2590 float
-1.001 -0.05 0.0011 -0.900789 -0.0500215 0.00109731 -0.800577 -0.050043 0.00109463 -0.700366 -0.0500645
0.00109196 -0.600155 -0.0500859 0.00108929 -0.499943 -0.0501072 0.00108663 -0.424945 -0.0501111 0.00107895
-0.349947 -0.0501521 0.00106883 -0.274949 -0.0501926 0.00105881 -0.19995 -0.0502327 0.00104888 -0.124952
-0.0502725 0.00103905 -0.0499538 -0.050282 0.00103929 0.0250446 -0.0502909 0.00104803 0.100043 -0.0502999
0.00105683 0.175041 -0.050309 0.00106572 0.25004 -0.0503181 0.00107468 0.400037 -0.0503121 0.00109077
0.550035 -0.0503104 0.00110499 0.700032 -0.0503087 0.0011194 0.85003 -0.0503069 0.001134 1.00003
-0.0503051 0.00114879 1.15003 -0.0503158 0.00115599 1.30002 -0.0503216 0.00116046 1.45002 -0.0503273
0.00116495 1.60002 -0.0503331 0.00116946 1.75002 -0.050339 0.00117399 1.90002 -0.0503476 0.00117686
2.05002 -0.0503541 0.00117879 2.20001 -0.0503607 0.00118072 2.35001 -0.0503672 0.00118266 2.50001
-0.0503738 0.0011846 2.65001 -0.0503818 0.00118565 2.80001 -0.0503899 0.00118634 2.95001 -0.0503981
0.00118703 3.10001 -0.0504062 0.00118772 3.25001 -0.0504144 0.00118841 3.40001 -0.0504223 0.00118869
3.55001 -0.0504311 0.00118927 3.70001 -0.05044 0.00118985 3.85001 -0.0504489 0.00119042 4.00001
-0.0504578 0.001191 4.15 -0.0504656 0.00119108 4.3 -0.0504752 0.00119175 4.45 -0.0504849
0.00119242 4.6 -0.0504945 0.0011931 4.75 -0.0505042 0.00119377 4.9 -0.0505119 0.00119377
5.05 -0.050522 0.0011946 5.2 -0.0505321 0.00119543 5.35 -0.0505423 0.00119627 5.5
-0.0505524 0.0011971 5.65 -0.05056 0.00119706 5.8 -0.0505705 0.00119805 5.95 -0.0505809
0.00119905 6.1 -0.0505914 0.00120004 6.25 -0.0506019 0.00120104 6.4 -0.0506093 0.00120097
6.55 -0.05062 0.0012021 6.7 -0.0506307 0.00120323 6.85 -0.0506413 0.00120437 7
-0.050652 0.0012055 7.15 -0.0506594 0.00120541 7.3 -0.0506703 0.00120665 7.45 -0.0506811
0.00120789 7.6 -0.0506919 0.00120913 7.75 -0.0507027 0.00121038 7.9 -0.0507101 0.00121027
8.05 -0.050721 0.0012116 8.2 -0.0507319 0.00121294 8.35 -0.0507429 0.00121427 8.5
-0.0507538 0.00121561 8.65 -0.0507611 0.0012155 8.8 -0.0507721 0.0012169 8.95 -0.0507831
0.00121831 9.1 -0.0507941 0.00121973 9.25 -0.0508052 0.00122114 9.4 -0.0508124 0.00122102
9.55 -0.0508697 0.00122315 9.7 -0.0509785 0.00122603 9.85 -0.0511388 0.00122965 10
-0.0513506 0.00123402 -1.001 -0.05 0.0537316 -0.900807 -0.050106 0.0535767 -0.800614 -0.0502123
0.0533945 -0.700421 -0.050342 0.0531787 -0.600229 -0.0505028 0.0529272 -0.500035 -0.0506944 0.0526403
-0.425004 -0.0509425 0.052418 -0.349973 -0.0512799 0.0521288 -0.274943 -0.0516646 0.0518606 -0.199912
-0.0520831 0.0516346 -0.124879 -0.0524861 0.051491 -0.0498864 -0.0527532 0.051528 0.0251065 -0.0529743
0.0516938 0.100099 -0.0531908 0.0519281 0.175092 -0.0534166 0.0522106 0.250087 -0.0536377 0.052528
0.400077 -0.054026 0.0531635 0.550067 -0.054412 0.0536783 0.700057 -0.0547566 0.0541445 0.850047
-0.0550598 0.0545616 1.00003 -0.0553296 0.0549292 1.14684 -0.0556994 0.0552075 1.29364 -0.0560377
0.0554672 1.44045 -0.0563732 0.0556932 1.58725 -0.056706 0.0558856 1.70466 -0.0569702 0.0560125
1.71373 -0.0569914 0.0560209 1.7228 -0.0570127 0.0560293 1.73188 -0.057034 0.0560376 1.74095
-0.0570555 0.0560458 1.75002 -0.0570771 0.056054 1.90002 -0.0574356 0.0561873 2.05002 -0.0577897
0.0563034 2.20001 -0.0581401 0.0564019 2.35001 -0.0584866 0.0564828 2.50001 -0.0588293 0.0565459
2.65001 -0.059177 0.056598 2.80001 -0.0595245 0.0566433 2.95001 -0.0598712 0.056681 3.10001
-0.060217 0.0567109 3.25001 -0.060562 0.0567332 3.40001 -0.0609079 0.0567504 3.55001 -0.0612552
0.0567669 3.70001 -0.061601 0.0567813 3.85001 -0.0619453 0.0567937 4.00001 -0.0622881 0.056804
4.15 -0.0626286 0.056812 4.3 -0.062973 0.0568209 4.45 -0.0633159 0.0568291 4.6
-0.0636573 0.0568366 4.75 -0.0639972 0.0568432 4.9 -0.0643322 0.0568476 5.05 -0.0646726
0.056854 5.2 -0.0650117 0.0568599 5.35 -0.0653494 0.0568655 5.5 -0.0656857 0.0568707
5.65 -0.0660151 0.0568733 5.8 -0.0663511 0.0568784 5.95 -0.0666858 0.0568833 6.1
-0.0670193 0.056888 6.25 -0.0673515 0.0568924 6.4 -0.0676758 0.0568939 6.55 -0.0680072
0.0568984 6.7 -0.0683374 0.0569027 6.85 -0.0686664 0.0569069 7 -0.0689942 0.0569109
7.15 -0.0693133 0.0569116 7.3 -0.06964 0.0569157 7.45 -0.0699656 0.0569197 7.6
-0.07029 0.0569235 7.75 -0.0706133 0.0569272 7.9 -0.0709272 0.0569274 8.05 -0.0712492
0.0569313 8.2 -0.07157 0.0569351 8.35 -0.0718897 0.0569389 8.5 -0.0722083 0.0569427
8.65 -0.0725171 0.0569428 8.8 -0.0728344 0.0569466 8.95 -0.0731504 0.0569504 9.1
-0.0734653 0.056954 9.25 -0.073779 0.0569575 9.4 -0.0740826 0.0569572 9.55 -0.0743954
0.0569608 9.7 -0.0747076 0.0569644 9.85 -0.0750193 0.0569679 10 -0.0753305 0.0569714
-1.001 -0.05 0.106363 -0.900818 -0.0500779 0.106138 -0.800636 -0.0501537 0.105866 -0.700455
-0.050256 0.105547 -0.600274 -0.0504285 0.105006 -0.50009 -0.0506708 0.104245 -0.424996 -0.0509577
0.103661 -0.349901 -0.0513059 0.103056 -0.274807 -0.0516584 0.10252 -0.199711 -0.0519565 0.102091
-0.124607 -0.052299 0.10199 -0.0496046 -0.0525476 0.102103 0.0253975 -0.0527415 0.102333 0.100399
-0.0529226 0.102645 0.175401 -0.0531241 0.103041 0.250411 -0.0533459 0.103523 0.400346 -0.0537546
0.104522 0.550283 -0.0541619 0.105394 0.70022 -0.0545302 0.106177 0.850157 -0.0548678 0.106795
1.00009 -0.0551745 0.107245 1.15007 -0.0556166 0.10751 1.30006 -0.0559145 0.107807 1.45005
-0.0561614 0.108083 1.60003 -0.0564022 0.108327 1.75002 -0.0566371 0.108538 1.90002 -0.0569457
0.108683 2.05002 -0.0571913 0.108839 2.20001 -0.0574309 0.108978 2.35001 -0.0576681 0.109101
2.50001 -0.0579027 0.109206 2.65001 -0.0581935 0.109275 2.80001 -0.0584426 0.109343 2.95001
-0.0586904 0.109403 3.10001 -0.0589375 0.109456 3.25001 -0.0591839 0.109501 3.40001 -0.059473
0.109536 3.55001 -0.059726 0.10957 3.70001 -0.059977 0.109601 3.85001 -0.0602264 0.109631
4 -0.0604743 0.109658 4.15 -0.0607572 0.109684 4.3 -0.0610101 0.109706 4.45
-0.0612611 0.109727 4.6 -0.0615105 0.109746 4.75 -0.0617584 0.109766 4.9 -0.0620348
0.109788 5.05 -0.0622857 0.109804 5.2 -0.0625349 0.109819 5.35 -0.0627827 0.109833
5.5 -0.063029 0.109847 5.65 -0.063299 0.109868 5.8 -0.0635473 0.109879 5.95
-0.0637941 0.10989 6.1 -0.0640396 0.109901 6.25 -0.0642839 0.109911 6.4 -0.0645478
0.109931 6.55 -0.0647932 0.109939 6.7 -0.0650372 0.109946 6.85 -0.06528 0.109954
7 -0.0655216 0.109961 7.15 -0.0657797 0.10998 7.3 -0.0660219 0.109986 7.45
-0.0662628 0.109991 7.6 -0.0665025 0.109997 7.75 -0.0667411 0.110002 7.9 -0.0669935
0.11002 8.05 -0.0672324 0.110023 8.2 -0.06747 0.110027 8.35 -0.0677065 0.110031
8.5 -0.0679419 0.110034 8.65 -0.0681887 0.110052 8.8 -0.0684241 0.110055 8.95
-0.0686582 0.110057 9.1 -0.068891 0.11006 9.25 -0.0691228 0.110062 9.4 -0.069364
0.110079 9.55 -0.069596 0.11008 9.7 -0.0698274 0.110081 9.85 -0.0700584 0.110082
10 -0.0702888 0.110083 -1.001 -0.05 0.158995 -0.900796 -0.0500884 0.15877 -0.800593
-0.0501928 0.158425 -0.700392 -0.0503543 0.157689 -0.600196 -0.0505857 0.156479 -0.499992 -0.0508788
0.154641 -0.42472 -0.0514856 0.153039 -0.349437 -0.0519524 0.15212 -0.274149 -0.0523483 0.151558
-0.19886 -0.0527424 0.151266 -0.1237 -0.0530592 0.15132 -0.0487805 -0.0531823 0.151484 0.0261372
-0.0532612 0.151964 0.101053 -0.0534015 0.152669 0.175968 -0.0535689 0.153467 0.250944 -0.0537236
0.154295 0.400784 -0.0539368 0.155716 0.550625 -0.054445 0.156893 0.700468 -0.0549185 0.157647
0.850313 -0.0553179 0.158245 1.00014 -0.0556862 0.158676 1.15012 -0.0561907 0.158922 1.30009
-0.0565506 0.1592 1.45007 -0.0568169 0.159468 1.60005 -0.057006 0.159723 1.75002 -0.0571893
0.159945 1.90002 -0.0574472 0.160101 2.05002 -0.0576415 0.160267 2.20002 -0.0578237 0.160419
2.35001 -0.0579971 0.160556 2.50001 -0.0581681 0.160676 2.65001 -0.0583956 0.16076 2.80001
-0.0585813 0.160842 2.95001 -0.0587647 0.160918 3.10001 -0.0589465 0.160986 3.25001 -0.0591276
0.161047 3.40001 -0.0593515 0.161098 3.55001 -0.0595394 0.161147 3.70001 -0.0597244 0.161195
3.85001 -0.0599072 0.161241 4 -0.0600884 0.161285 4.15 -0.0603046 0.161328 4.3
-0.0604909 0.161366 4.45 -0.0606746 0.161403 4.6 -0.0608562 0.16144 4.75 -0.0610362
0.161477 4.9 -0.0612445 0.161517 5.05 -0.0614275 0.161549 5.2 -0.0616083 0.161581
5.35 -0.0617872 0.161613 5.5 -0.0619647 0.161644 5.65 -0.0621655 0.161682 5.8
-0.062345 0.161711 5.95 -0.0625225 0.161739 6.1 -0.0626983 0.161767 6.25 -0.0628728
0.161794 6.4 -0.0630666 0.161831 6.55 -0.0632423 0.161856 6.7 -0.0634163 0.161881
6.85 -0.0635886 0.161906 7 -0.0637598 0.161931 7.15 -0.063947 0.161966 7.3
-0.0641188 0.161989 7.45 -0.064289 0.162012 7.6 -0.0644578 0.162035 7.75 -0.0646254
0.162057 7.9 -0.0648063 0.162091 8.05 -0.0649742 0.162112 8.2 -0.0651407 0.162133
8.35 -0.0653057 0.162154 8.5 -0.0654697 0.162175 8.65 -0.0656447 0.162209 8.8
-0.0658086 0.162229 8.95 -0.0659709 0.162248 9.1 -0.0661319 0.162268 9.25 -0.0662917
0.162287 9.4 -0.0664605 0.16232 9.55 -0.0666206 0.162338 9.7 -0.0667798 0.162355
9.85 -0.0669383 0.162372 10 -0.0670963 0.16239 -1.001 -0.05 0.211626 -0.947633
-0.0500805 0.211469 -0.894266 -0.0501656 0.211279 -0.840899 -0.0502553 0.211055 -0.787533 -0.0503896
0.210764 -0.724322 -0.0506332 0.210286 -0.679444 -0.0509108 0.209636 -0.634569 -0.0512455 0.208758
-0.589697 -0.0515842 0.207743 -0.544829 -0.0519278 0.20659 -0.499928 -0.0522778 0.205298 -0.469394
-0.052572 0.204244 -0.438861 -0.0528764 0.203126 -0.408325 -0.0531653 0.202137 -0.377784 -0.0534397
0.201269 -0.329463 -0.0538587 0.200029 -0.288531 -0.0541977 0.199124 -0.247594 -0.0545366 0.198436
-0.206653 -0.0548798 0.19806 -0.165711 -0.0551875 0.197971 -0.124884 -0.055421 0.198144 -0.0496127
-0.0557274 0.198856 0.025657 -0.0558653 0.199805 0.100922 -0.0559755 0.201086 0.176185 -0.0561193
0.202446 0.251487 -0.0562563 0.2036 0.251735 -0.0562567 0.203603 0.251982 -0.0562571 0.203606
0.252229 -0.0562574 0.203609 0.252476 -0.0562578 0.203612 0.252724 -0.0562582 0.203616 0.327233
-0.0563729 0.204591 0.401744 -0.0564896 0.20544 0.476256 -0.0566082 0.206162 0.55077 -0.0567555
[...]
POINT_DATA 2590
FIELD attributes 4
age 1 2590 float
0 0.00501121 0.0100224 0.0150336 0.0200448 0.025056 0.0288056 0.0325533 0.036301 0.0400488 0.0437965
0.0475449 0.0512906 0.0550361 0.0587817 0.0625272 0.070024 0.0775229 0.0850219 0.0925208 0.10002
0.10752 0.115019 0.122519 0.130019 0.137519 0.145019 0.152519 0.160019 0.167518 0.175018
0.182518 0.190018 0.197517 0.205017 0.212517 0.220017 0.227516 0.235016 0.242516 0.250015
0.257515 0.265015 0.272515 0.280014 0.287514 0.295014 0.302514 0.310014 0.317513 0.325013
0.332513 0.340013 0.347512 0.355012 0.362512 0.370012 0.377512 0.385011 0.392511 0.400011
0.407511 0.415011 0.42251 0.43001 0.43751 0.44501 0.452509 0.460009 0.467509 0.475009
0.482509 0.490009 0.497508 0.505008 0.512508 0.520008 0.527507 0.535005 0.542503 0.55
0 0.00502602 0.0100533 0.0150747 0.0200879 0.0250929 0.028832 0.0325652 0.0362917 0.0400113
0.0437247 0.0474309 0.0511302 0.0548276 0.058525 0.0622241 0.0696348 0.0770708 0.0845216 0.0919872
0.0994673 0.106802 0.114137 0.121474 0.128812 0.134682 0.135135 0.135589 0.136043 0.136496
0.13695 0.14445 0.15195 0.15945 0.166948 0.174447 0.181945 0.189442 0.196939 0.204436
0.211933 0.219431 0.226928 0.234425 0.241922 0.249419 0.256917 0.264414 0.271912 0.279409
0.286907 0.294405 0.301903 0.309401 0.3169 0.324398 0.331897 0.339395 0.346894 0.354392
0.361891 0.369391 0.376889 0.384388 0.391887 0.399387 0.406887 0.414386 0.421886 0.429385
0.436885 0.444385 0.451885 0.459385 0.466885 0.474386 0.481887 0.489387 0.496888 0.504388
0.511889 0.519391 0.526892 0.534393 0.541894 0.549395 0 0.005028 0.0100578 0.0150819
0.0200993 0.0251105 0.0288575 0.0325975 0.0363282 0.0400541 0.0437702 0.047475 0.0511739 0.0548718
0.0585687 0.0622651 0.0696635 0.0770889 0.0845324 0.0919979 0.0994852 0.106988 0.114493 0.122
0.129509 0.137018 0.144533 0.152042 0.15955 0.167058 0.174565 0.182078 0.189583 0.197089
0.204594 0.212099 0.219611 0.227116 0.234621 0.242126 0.249631 0.257143 0.264649 0.272154
0.27966 0.287165 0.294678 0.302184 0.30969 0.317196 0.324702 0.332215 0.339721 0.347227
0.354734 0.36224 0.369754 0.37726 0.384767 0.392273 0.39978 0.407294 0.414801 0.422308
0.429815 0.437322 0.444837 0.452344 0.459852 0.467359 0.474867 0.482382 0.48989 0.497397
0.504905 0.512413 0.519929 0.527437 0.534945 0.542453 0.549962 0 0.00503011 0.0100662
0.0150995 0.0201269 0.0251495 0.0289152 0.0326691 0.036411 0.0401426 0.0438574 0.0475524 0.051242
0.0549304 0.0586181 0.0623093 0.0696964 0.0771198 0.0845738 0.0920443 0.0995359 0.107048 0.114561
0.12208 0.129602 0.137126 0.144655 0.152178 0.159701 0.167224 0.174746 0.182274 0.189795
0.197316 0.204836 0.212356 0.219883 0.227403 0.234924 0.242444 0.249964 0.257492 0.265012
0.272533 0.280054 0.287575 0.295102 0.302624 0.310145 0.317666 0.325187 0.332715 0.340237
0.347758 0.35528 0.362802 0.37033 0.377852 0.385374 0.392896 0.400418 0.407947 0.41547
0.422992 0.430514 0.438037 0.445566 0.453089 0.460612 0.468134 0.475657 0.483188 0.490711
0.498234 0.505757 0.51328 0.520811 0.528334 0.535858 0.543381 0.550905 0 0.00268267
0.00536703 0.00805307 0.0107385 0.0139171 0.0161724 0.0184274 0.0206816 0.0229349 0.0251892 0.0267199
0.0282485 0.0297741 0.0312968 0.0337003 0.0357286 0.0377512 0.0397683 0.0417799 0.0437801 0.0474589
0.051139 0.0548204 0.0585083 0.062209 0.0622212 0.0622334 0.0622455 0.0622577 0.0622699 0.0659402
0.0696206 0.0733109 0.0770115 0.080722 0.0813147 0.0819073 0.0825 0.0830928 0.0836711 0.0868277
0.0899868 0.0931486 0.0963129 0.0994793 0.107 0.114522 0.122049 0.12958 0.137117 0.14466
0.152197 0.159734 0.167271 0.174807 0.18235 0.189885 0.197421 0.204956 0.21249 0.220032
0.227567 0.235102 0.242637 0.250171 0.257714 0.265249 0.272784 0.280319 0.287855 0.295397
0.302933 0.310469 0.318004 0.32554 0.333083 0.340619 0.348155 0.355692 0.363228 0.370772
0.378308 0.385844 0.393381 0.400918 0.408462 0.415999 0.423535 0.431073 0.43861 0.446154
0.453691 0.461229 0.468766 0.476304 0.483849 0.491386 0.498924 0.506462 0.514 0.521545
0.529083 0.536621 0.544159 0.551698 0 0.00126444 0.00252926 0.00379476 0.00506106 0.00632818
0.0101157 0.0139115 0.017719 0.021533 0.0253295 0.0269141 0.0284884 0.030056 0.0316163 0.0330091
0.0333336 0.0336577 0.0339816 0.0343052 0.0346288 0.0364569 0.038278 0.0400901 0.0418971 0.0436946
0.045495 0.0473001 0.0491172 0.0509393 0.0527655 0.0529091 0.0530526 0.0531962 0.0533398 0.0534901
0.0551765 0.0568656 0.0585575 0.0602524 0.0619499 0.0656457 0.0693583 0.0730889 0.0768303 0.0805807
0.0843443 0.088107 0.0918704 0.0956365 0.099405 0.106941 0.114479 0.122021 0.129567 0.137117
0.144682 0.152235 0.159788 0.167341 0.174893 0.182454 0.190006 0.197557 0.205109 0.21266
0.220218 0.227769 0.23532 0.242871 0.250422 0.257981 0.265532 0.273083 0.280635 0.288186
0.295746 0.303297 0.310849 0.318401 0.325953 0.333512 0.341064 0.348616 0.356169 0.363721
0.371281 0.378833 0.386385 0.393938 0.401491 0.409051 0.416604 0.424156 0.431709 0.439262
0.446823 0.454376 0.461929 0.469482 0.477035 0.484596 0.49215 0.499703 0.507256 0.51481
0.522371 0.529925 0.537478 0.545032 0.552586 0 0.00126544 0.0025314 0.00379787 0.00506486
0.00633238 0.00822676 0.0101235 0.0120227 0.0139248 0.015829 0.0177464 0.0196687 0.021592 0.0235184
0.0254572 0.0264283 0.0273967 0.0283607 0.0293203 0.0302796 0.0307564 0.0312315 0.0317046 0.0321756
0.03269 0.0331443 0.0335965 0.0340468 0.0344951 0.0349409 0.0358513 0.0367584 0.0376614 0.0385602
0.0394501 0.0403392 0.0412269 0.0421138 0.0430005 0.0438877 0.0452248 0.0465687 0.0479194 0.0492707
0.0528822 0.0547111 0.0565537 0.0584077 0.0602684 0.0621298 0.0640011 0.0658736 0.0677483 0.0696255
0.0715068 0.0733956 0.0752787 0.077158 0.0790392 0.0809255 0.0840561 0.0871907 0.0903271 0.093465
0.0961222 0.0968815 0.0976409 0.0984004 0.0991601 0.0999199 0.107513 0.115109 0.122708 0.130311
0.137918 0.14555 0.153157 0.16076 0.168362 0.175964 0.183585 0.191184 0.198782 0.20638
0.213978 0.221594 0.229191 0.236787 0.244384 0.25198 0.259595 0.267192 0.274787 0.282383
0.289979 0.297592 0.305189 0.312784 0.320379 0.327975 0.335587 0.343183 0.350777 0.358373
0.365968 0.373579 0.381174 0.388768 0.396363 0.403958 0.411567 0.419162 0.426757 0.434351
0.441946 0.449554 0.457148 0.464742 0.472336 0.479931 0.487537 0.495132 0.502725 0.510319
0.517912 0.525518 0.533112 0.540705 0.548298 0.555892 0 0.00126279 0.00252625 0.00379074
0.00505641 0.00632326 0.00823328 0.0101453 0.0120611 0.0139802 0.0159046 0.0178219 0.0197521 0.0216951
0.0236509 0.025629 0.0266289 0.0276296 0.0286307 0.0296311 0.0306433 0.030891 0.0311386 0.0313859
0.0316313 0.0318211 0.0325716 0.0333096 0.0340346 0.034746 0.0354495 0.0358967 0.0363421 0.036786
0.0372285 0.0376649 0.0381024 0.0385369 0.0389691 0.0394005 0.0398294 0.0402612 0.0406931 0.0411251
0.0415576 0.0419928 0.0424282 0.042863 0.0432982 0.0437342 0.0441725 0.0450494 0.0459356 0.0468322
0.0477403 0.0486657 0.0494128 0.0501588 0.050907 0.0516587 0.0525864 0.0527405 0.0528948 0.0530491
0.0532035 0.0533581 0.0543124 0.0552654 0.0562204 0.0571781 0.0581379 0.0591067 0.0600746 0.0610436
0.0620156 0.0629892 0.0649582 0.0669219 0.0688801 0.0708428 0.0727886 0.0747199 0.0766665 0.0786284
0.0805945 0.0825652 0.0865261 0.0904785 0.0944048 0.0983155 0.10223 0.110057 0.117851 0.125575
0.13324 0.140909 0.148607 0.156284 0.163956 0.171623 0.179288 0.18697 0.194633 0.202295
0.209955 0.217615 0.225289 0.232948 0.240606 0.248262 0.255918 0.263588 0.271244 0.278899
0.286553 0.294207 0.301873 0.309527 0.31718 0.324832 0.332483 0.340146 0.347798 0.355448
0.363098 0.370748 0.378407 0.386057 0.393705 0.401353 0.409001 0.416657 0.424305 0.431951
0.439597 0.447243 0.454897 0.462542 0.470187 0.477831 0.485475 0.493126 0.50077 0.508412
0.516054 0.523696 0.531344 0.538985 0.546627 0.554267 0.561908 0 0.00126441 0.00252947
0.00379518 0.00506154 0.00632914 0.00824618 0.0101656 0.0120884 0.0140174 0.0159586 0.0169287 0.0179017
0.0188778 0.0198571 0.0208395 0.0218272 0.0228229 0.0238276 0.0248413 0.0258654 0.026383 0.0269024
0.0274254 0.0279521 0.0284851 0.0287753 0.029067 0.0293609 0.0296576 0.0297555 0.0300556 0.0303571
0.0306595 0.0309616 0.031272 0.0313688 0.0314655 0.0315624 0.0316595 0.0317303 0.0317654 0.0318004
0.0318355 0.0318705 0.0319039 0.0320673 0.0322305 0.0323936 0.0325566 0.0327209 0.0328997 0.0330781
0.0332561 0.0334311 0.0335603 0.0336658 0.0337708 0.0338751 0.0339786 0.0340835 0.034194 0.0343029
0.0344104 0.0345168 0.0346038 0.0346585 0.0347128 0.0347669 0.0348206 0.0348732 0.0349705 0.0350675
0.035164 0.03526 0.0353539 0.0354766 0.0355978 0.0357176 0.0358363 0.0360309 0.0361305 0.0362297
0.0363286 0.0364274 0.0365164 0.0366031 0.03669 0.0367768 0.0368636 0.0370209 0.0371432 0.0372652
0.0373871 0.0375087 0.0376287 0.0378477 0.038065 0.0382823 0.0385002 0.0387145 0.0389325 0.0391498
0.0393675 0.0395856 0.0398034 0.0400241 0.0402432 0.0404625 0.0406821 0.0409024 0.0411225 0.0413422
0.0415621 0.0417827 0.0420058 0.0422302 0.0424527 0.0426753 0.0428986 0.0431228 0.0434586 0.0437961
0.0441391 0.0444878 0.0446525 0.0448117 0.0449712 0.045131 0.0452912 0.0454526 0.0459391 0.0464182
0.0468975 0.0473725 0.0478685 0.0483852 0.0488915 0.0493984 0.04991 0.0504289 0.050502 0.0505753
0.0506488 0.0507224 0.0507944 0.0517983 0.0528451 0.0539369 0.05499 0.056055 0.0572578 0.0584382
0.0596197 0.0608071 0.0619945 0.0624057 0.062816 0.0632261 0.0636365 0.0641004 0.0648935 0.0656787
0.0664609 0.0672452 0.0680281 0.0681673 0.0683062 0.0684447 0.0685827 0.0687194 0.0697679 0.0708126
0.0718556 0.0728965 0.0739328 0.0750848 0.0762576 0.0774342 0.0786122 0.0797928 0.0812648 0.082738
0.0842182 0.0857028 0.0875969 0.0883384 0.0890768 0.0898121 0.0905442 0.0912729 0.0957816 0.100266
0.104676 0.108995 0.113183 0.121359 0.129471 0.137511 0.145479 0.153365 0.161126 0.168887
0.176645 0.184401 0.192153 0.199903 0.207652 0.215399 0.223144 0.230887 0.237303 0.243719
0.250134 0.256549 0.263058 0.264362 0.265666 0.26697 0.268274 0.269578 0.277311 0.285047
0.292782 0.300517 0.308252 0.315978 0.323713 0.331448 0.339183 0.346918 0.354637 0.362372
0.370106 0.377841 0.385575 0.393288 0.401022 0.408756 0.416489 0.424223 0.43193 0.439663
0.447396 0.455129 0.462862 0.470563 0.478295 0.486027 0.493759 0.501491 0.509186 0.516917
0.524648 0.532378 0.540109 0.547799 0.555527 0.563256 0.570985 0.578714 0 0.00125411
0.00250916 0.00376552 0.00502333 0.0062827 0.008214 0.010148 0.0120848 0.0140286 0.0159868 0.0169595
0.017936 0.0189166 0.0199013 0.0208901 0.0218845 0.0228898 0.0239066 0.0249353 0.025977 0.0265056
0.0270374 0.0275759 0.0281213 0.0286755 0.029241 0.0298143 0.0304005 0.0310006 0.0316273 0.0319462
0.032265 0.0325845 0.032905 0.03324 0.0333108 0.0333816 0.0334525 0.0335234 0.0335812 0.0336579
0.0337331 0.0338075 0.0338812 0.0339433 0.0341147 0.0342829 0.0344478 0.0346092 0.034776 0.0349186
0.0350584 0.0351956 0.0353295 0.0354487 0.0355691 0.0356889 0.0358082 0.0359258 0.0360377 0.0361549
0.0362691 0.0363803 0.036491 0.0366371 0.0367443 0.0368514 0.0369582 0.0370648 0.0371627 0.0373596
0.0375566 0.0377569 0.0379603 0.0383826 0.0386169 0.0388516 0.0390841 0.0393147 0.0395405 0.0400036
0.0404607 0.0409142 0.0413646 0.0418101 0.0422668 0.0427087 0.0431539 0.0436022 0.0440534 0.0445263
0.0449931 0.0454717 0.0459549 0.046446 0.0473094 0.0481928 0.0490901 0.0499697 0.0517775 0.0528994
0.0540233 0.0551706 0.0563379 0.0575378 0.0587943 0.0600237 0.0612368 0.0624592 0.0636874 0.0645755
0.0654512 0.0663262 0.0671958 0.0683406 0.0686482 0.068956 0.0692638 0.0695723 0.0698812 0.0706045
0.071329 0.0720535 0.0727792 0.073659 0.0741451 0.0746311 0.0751168 0.0756014 0.0760837 0.0773235
0.0785674 0.079819 0.0810717 0.0823239 0.0848107 0.0873016 0.0897629 0.0921819 0.0945752 0.0994066
0.10419 0.108835 0.113344 0.1177 0.121275 0.124838 0.128387 0.131923 0.136305 0.140882
0.145403 0.14987 0.154283 0.158643 0.166403 0.174173 0.181941 0.189707 0.197473 0.205217
0.212982 0.220745 0.228508 0.236271 0.244005 0.251766 0.259527 0.267288 0.275049 0.282775
0.290534 0.298294 0.306055 0.313815 0.321533 0.329292 0.337051 0.34481 0.352569 0.360281
0.368038 0.375796 0.383554 0.391312 0.399018 0.406774 0.414531 0.422287 0.430044 0.437743
0.445498 0.453253 0.461009 0.468764 0.476458 0.484211 0.491965 0.499718 0.507472 0.515161
0.522912 0.530664 0.538415 0.546167 0.55385 0.561598 0.569347 0.577095 0.584845 0
0.00125903 0.00251873 0.00377912 0.00504092 0.00630438 0.00823305 0.0101647 0.0120992 0.0140411 0.0159972
0.0169701 0.0179471 0.0189282 0.0199134 0.020903 0.0218974 0.0229025 0.0239192 0.0249477 0.0259892
0.0265182 0.0270501 0.0275877 0.028132 0.0286857 0.0292486 0.0298193 0.0303994 0.0309921 0.0316143
0.0319304 0.0322472 0.0325644 0.0328816 0.0332112 0.033449 0.0336854 0.0339199 0.0341482 0.034245
0.0343487 0.0344514 0.034553 0.0346535 0.0347566 0.0349578 0.0351521 0.0353399 0.0355217 0.0356763
0.0357552 0.0358339 0.0359117 0.0359888 0.0360641 0.036067 0.0360698 0.0360727 0.0360755 0.0360784
0.0362213 0.0363629 0.0365032 0.0366421 0.0368443 0.0369203 0.0369963 0.0370721 0.0371478 0.0372197
0.0376775 0.0381406 0.0386172 0.0391014 0.039515 0.0399763 0.0404267 0.0408756 0.0413266 0.0417857
0.0422609 0.0427266 0.0431888 0.0436534 0.0441273 0.0446184 0.0451004 0.045577 0.0460588 0.0465544
0.0475859 0.04864 0.049706 0.0507919 0.051612 0.0516725 0.051733 0.0517934 0.0518537 0.0519141
0.0530418 0.0541952 0.0553768 0.0565816 0.0578058 0.0590793 0.0603293 0.0615593 0.0628056 0.0640457
0.0646691 0.0652822 0.0658926 0.0665016 0.0671134 0.0677392 0.0683553 0.0689622 0.069571 0.0701852
0.071435 0.0726942 0.0739503 0.0752015 0.0764422 0.0772009 0.0779528 0.0787055 0.07946 0.0803015
0.0807039 0.0811065 0.0815094 0.081913 0.082309 0.0823874 0.0824658 0.0825442 0.0826225 0.0827007
0.0852088 0.0877015 0.0901793 0.0925995 0.0949909 0.0997514 0.104463 0.109065 0.113555 0.117902
0.124767 0.131543 0.138203 0.14475 0.159173 0.162536 0.165898 0.16926 0.172621 0.176045
0.18042 0.184795 0.189169 0.193543 0.197916 0.205655 0.213399 0.221143 0.228886 0.236628
0.244357 0.252098 0.25984 0.267581 0.275322 0.283043 0.290783 0.298524 0.306265 0.314005
0.321719 0.329458 0.337198 0.344938 0.352679 0.360385 0.368124 0.375864 0.383603 0.391342
0.399043 0.406781 0.41452 0.422258 0.429996 0.437691 0.445428 0.453165 0.460902 0.46864
0.47633 0.484065 0.491801 0.499537 0.507273 0.514958 0.522692 0.530426 0.53816 0.545894
0.553574 0.561305 0.569037 0.576769 0.584501 0 0.00127992 0.00256047 0.00384229 0.00512558
0.00641036 0.00831678 0.0102257 0.0121374 0.0140556 0.0159859 0.0169579 0.017933 0.0189114 0.0198933
0.0208787 0.0218729 0.0228761 0.0238891 0.0249121 0.0259473 0.0263899 0.0268341 0.0272818 0.0277328
0.0278564 0.0280053 0.0281544 0.0283037 0.028453 0.0286026 0.029146 0.0296937 0.0302486 0.0308122
0.0313968 0.0314715 0.0315462 0.0316209 0.0316955 0.0317605 0.031978 0.0321955 0.0324129 0.0326301
0.0328508 0.0329309 0.0330109 0.0330908 0.0331705 0.0332395 0.0334503 0.0336602 0.0338691 0.0340747
0.0342866 0.0343488 0.0344106 0.0344719 0.0345328 0.0345857 0.0345914 0.034597 0.0346027 0.0346084
0.034614 0.0348291 0.0350397 0.0352458 0.0354445 0.0356347 0.0356566 0.0356784 0.0357002 0.035722
0.0357443 0.0358458 0.0359463 0.0360458 0.0361466 0.0362906 0.0363845 0.0364777 0.0365703 0.0366619
0.0367512 0.0368557 0.0369594 0.0370627 0.0371661 0.0373156 0.0374139 0.037512 0.0376102 0.0377091
0.0378057 0.0380176 0.0382276 0.0384371 0.0386459 0.038858 0.039078 0.0392935 0.0395047 0.0397159
0.0399298 0.040146 0.0403604 0.0405739 0.040788 0.0410046 0.0412257 0.0414434 0.0416597 0.0418763
0.0420939 0.0423128 0.0425302 0.0427473 0.0429649 0.0431838 0.0436291 0.0440746 0.0445233 0.0449754
0.0454357 0.0459147 0.0463815 0.0468404 0.0473022 0.0477776 0.0482604 0.0487413 0.0492223 0.049707
0.0501997 0.0512166 0.0522392 0.0532739 0.0543624 0.0554678 0.0558196 0.0561717 0.0565248 0.0568794
0.0572531 0.0580573 0.058861 0.0596643 0.0604712 0.0612865 0.0624864 0.0636625 0.0648453 0.066043
0.0672351 0.0684617 0.0696642 0.0708448 0.0720188 0.0731848 0.0736364 0.0740873 0.0745386 0.0749903
0.0754331 0.0757243 0.0760158 0.0763073 0.076599 0.0768978 0.0773281 0.0777587 0.0781897 0.0786211
0.0790527 0.0813982 0.0837455 0.0860918 0.088408 0.0906976 0.0952088 0.0997726 0.104241 0.108567
0.112786 0.121097 0.129379 0.137598 0.145644 0.15352 0.161262 0.169004 0.176742 0.184476
0.192208 0.199936 0.207663 0.215389 0.223113 0.230836 0.237153 0.24347 0.249786 0.256101
0.262418 0.26382 0.265221 0.266622 0.268023 0.269424 0.277138 0.284853 0.292568 0.300284
0.307999 0.315706 0.323421 0.331136 0.338851 0.346566 0.354267 0.361981 0.369696 0.377411
0.385126 0.392821 0.400535 0.408249 0.415963 0.423677 0.431367 0.43908 0.446793 0.454507
0.462221 0.469905 0.477617 0.48533 0.493043 0.500755 0.508435 0.516146 0.523858 0.531569
0.53928 0.546955 0.554664 0.562374 0.570084 0.577794 0 0.00127753 0.00255576 0.00383511
0.00511575 0.00639766 0.00829923 0.0102027 0.0121091 0.0140203 0.0159396 0.0169037 0.0178698 0.0188377
0.019808 0.0207804 0.0217542 0.0227329 0.023717 0.0247056 0.025698 0.0266887 0.0276858 0.0286911
0.0296917 0.0307002 0.0307755 0.0308509 0.0309263 0.0310014 0.0310709 0.031993 0.0328956 0.0337778
0.0346387 0.0354971 0.035945 0.0363907 0.0368343 0.0372767 0.0377138 0.0381523 0.0385884 0.0390236
0.0394582 0.0398869 0.0403199 0.0407531 0.0411866 0.0416205 0.0420549 0.042491 0.0429261 0.043362
0.0437989 0.0442377 0.0451157 0.0460023 0.0468955 0.0477962 0.0487219 0.0496689 0.0506084 0.0515414
0.0524812 0.0534304 0.0541557 0.0548861 0.0556189 0.0563533 0.0574766 0.0576383 0.0578001 0.0579619
0.0581239 0.058286 0.0592697 0.0602529 0.0612364 0.0622197 0.0632019 0.065202 0.0671889 0.0691653
0.0711513 0.0731347 0.0750931 0.0770778 0.0790773 0.0810808 0.0830862 0.0870987 0.091128 0.0951254
0.0990779 0.103025 0.105857 0.108694 0.11154 0.114378 0.117717 0.122708 0.127671 0.132607
0.137516 0.142397 0.150107 0.15782 0.16553 0.173238 0.180943 0.188637 0.196337 0.204037
0.211735 0.219431 0.227118 0.234811 0.242503 0.250194 0.257885 0.265567 0.273255 0.280942
0.288627 0.296312 0.303991 0.311674 0.319356 0.327037 0.334718 0.342394 0.350072 0.35775
0.365427 0.373103 0.380775 0.38845 0.396124 0.403797 0.411469 0.419138 0.426809 0.434479
0.442148 0.449817 0.457483 0.46515 0.472817 0.480483 0.488148 0.495811 0.503475 0.511138
0.518801 0.526462 0.534122 0.541783 0.549443 0.557102 0.564761 0 0.00127409 0.0025488
0.00382395 0.00510034 0.00637795 0.00827385 0.0101719 0.0120722 0.0139755 0.015883 0.0177923 0.0197068
0.0216262 0.0235503 0.0254823 0.0264532 0.027421 0.028384 0.029342 0.0299613 0.0309793 0.0319897
0.0329896 0.0339793 0.0349572 0.0358662 0.0367718 0.0376733 0.0385718 0.0394613 0.040352 0.041241
0.042129 0.0430161 0.0439024 0.0456795 0.047474 0.0492829 0.0511016 0.0529367 0.0537976 0.0546598
0.055524 0.0563903 0.0577311 0.0586245 0.0595197 0.0604167 0.0613156 0.0622159 0.0640915 0.0659699
0.0678511 0.069735 0.0716208 0.0735163 0.0754039 0.0772925 0.0791826 0.0810737 0.0848696 0.0886647
0.0924643 0.0962683 0.100086 0.107785 0.115488 0.123145 0.130764 0.138399 0.146048 0.153694
0.161339 0.168983 0.176624 0.184271 0.191913 0.199555 0.207194 0.214833 0.222474 0.230112
0.23775 0.245386 0.253021 0.26066 0.268295 0.27593 0.283564 0.291197 0.298833 0.306466
0.314099 0.32173 0.329361 0.336995 0.344626 0.352256 0.359886 0.367514 0.375146 0.382775
0.390403 0.39803 0.405657 0.413286 0.420913 0.428539 0.436164 0.443789 0.451416 0.459041
0.466665 0.474289 0.481912 0.489537 0.49716 0.504782 0.512404 0.520024 0.527647 0.535268
0.542888 0.550508 0.558127 0 0.00127141 0.00254321 0.00381554 0.00508845 0.00636198 0.0101414
0.0139323 0.0177224 0.0215091 0.0252997 0.0257906 0.0262803 0.0267692 0.0272572 0.0276867 0.0290762
0.0304605 0.0318395 0.0332135 0.0345849 0.036426 0.0382577 0.0400724 0.0418831 0.0436887 0.0454999
0.0473085 0.0491185 0.0509372 0.0527672 0.0546034 0.0564411 0.0582816 0.0601249 0.0619709 0.065673
0.069389 0.073121 0.0768679 0.0806185 0.0843889 0.0881574 0.0919262 0.095697 0.0994702 0.107
0.114528 0.122061 0.12961 0.137173 0.144751 0.152327 0.159904 0.167482 0.175058 0.182639