# vtk DataFile Version 2.0
tracks
ASCII
DATASET POLYDATA
POINTS 2605 float
-1.001 -0.05 0.0011 -0.900789 -0.0500214 0.00109732 -0.800577 -0.0500427 0.00109465 -0.700366 -0.0500639
0.00109199 -0.600155 -0.0500851 0.00108934 -0.499943 -0.0501063 0.00108669 -0.424945 -0.0501101 0.0010791
-0.349947 -0.0501501 0.00106917 -0.274949 -0.0501897 0.00105933 -0.19995 -0.050229 0.00104958 -0.124952
-0.0502679 0.00103992 -0.0499538 -0.0502769 0.00104023 0.0250446 -0.0502841 0.00104888 0.100043 -0.0502912
0.00105761 0.175041 -0.0502985 0.0010664 0.25004 -0.0503058 0.00107527 0.400037 -0.0502984 0.00109114
0.550035 -0.050294 0.00110529 0.700032 -0.0502895 0.00111963 0.85003 -0.050285 0.00113415 1.00003
-0.0502804 0.00114886 1.15003 -0.0502901 0.00115605 1.30002 -0.0502936 0.00116044 1.45002 -0.050297
0.00116484 1.60002 -0.0503005 0.00116925 1.75002 -0.050304 0.00117369 1.90002 -0.0503117 0.00117651
2.05002 -0.0503161 0.00117835 2.20001 -0.0503205 0.00118019 2.35001 -0.0503249 0.00118204 2.50001
-0.0503294 0.00118389 2.65001 -0.0503365 0.00118491 2.80001 -0.0503426 0.00118553 2.95001 -0.0503486
0.00118615 3.10001 -0.0503547 0.00118677 3.25001 -0.0503608 0.00118738 3.40001 -0.0503678 0.00118765
3.55001 -0.0503746 0.00118816 3.70001 -0.0503815 0.00118867 3.85001 -0.0503883 0.00118918 4.00001
-0.0503951 0.00118968 4.15 -0.0504021 0.00118976 4.3 -0.0504097 0.00119036 4.45 -0.0504174
0.00119096 4.6 -0.050425 0.00119156 4.75 -0.0504327 0.00119216 4.9 -0.0504395 0.00119216
5.05 -0.0504477 0.00119291 5.2 -0.0504558 0.00119366 5.35 -0.050464 0.00119442 5.5
-0.0504721 0.00119518 5.65 -0.0504789 0.00119514 5.8 -0.0504874 0.00119605 5.95 -0.0504959
0.00119697 6.1 -0.0505044 0.00119789 6.25 -0.0505129 0.00119881 6.4 -0.0505196 0.00119875
6.55 -0.0505283 0.0011998 6.7 -0.050537 0.00120086 6.85 -0.0505457 0.00120192 7
-0.0505545 0.00120298 7.15 -0.0505611 0.00120291 7.3 -0.05057 0.00120407 7.45 -0.0505789
0.00120523 7.6 -0.0505878 0.00120639 7.75 -0.0505967 0.00120756 7.9 -0.0506032 0.00120748
8.05 -0.0506122 0.00120872 8.2 -0.0506213 0.00120997 8.35 -0.0506303 0.00121121 8.5
-0.0506393 0.00121246 8.65 -0.0506458 0.00121239 8.8 -0.0506549 0.0012137 8.95 -0.050664
0.00121501 9.1 -0.0506731 0.00121633 9.25 -0.0506823 0.00121764 9.4 -0.0506887 0.00121756
9.55 -0.0507385 0.00121966 9.7 -0.0508336 0.0012226 9.85 -0.0509739 0.00122637 10
-0.0511595 0.00123097 -1.001 -0.05 0.0537316 -0.900807 -0.0501046 0.0535759 -0.800614 -0.050209
0.0533929 -0.700421 -0.0503362 0.0531771 -0.600229 -0.0504936 0.0529268 -0.500035 -0.050681 0.0526421
-0.425004 -0.0509223 0.0524234 -0.349973 -0.0512514 0.0521395 -0.274943 -0.051626 0.0518772 -0.199912
-0.0520326 0.051657 -0.124879 -0.0524222 0.0515187 -0.0498863 -0.0526751 0.0515599 0.0251066 -0.0528784
0.0517254 0.100099 -0.0530749 0.0519581 0.175092 -0.0532794 0.0522384 0.250087 -0.0534787 0.0525537
0.400077 -0.0538267 0.053187 0.550067 -0.0541708 0.0537011 0.700057 -0.0544744 0.0541664 0.850047
-0.0547375 0.0545825 1.00003 -0.0549673 0.054949 1.14727 -0.0553009 0.0552277 1.2945 -0.0556025
0.0554865 1.44173 -0.0559012 0.0557112 1.58896 -0.0561971 0.0559018 1.70604 -0.0564303 0.0560263
1.71483 -0.0564486 0.0560343 1.72363 -0.0564669 0.0560423 1.73242 -0.0564854 0.0560502 1.74122
-0.056504 0.056058 1.75002 -0.0565227 0.0560657 1.90002 -0.0568431 0.0561966 2.05002 -0.0571585
0.0563103 2.20001 -0.0574696 0.0564066 2.35001 -0.0577766 0.0564855 2.50001 -0.0580793 0.0565468
2.65001 -0.0583897 0.0565973 2.80001 -0.058697 0.056641 2.95001 -0.0590035 0.0566771 3.10001
-0.0593093 0.0567056 3.25001 -0.0596142 0.0567265 3.40001 -0.0599231 0.0567426 3.55001 -0.0602304
0.0567579 3.70001 -0.0605365 0.0567711 3.85001 -0.0608414 0.0567824 4.00001 -0.061145 0.0567917
4.15 -0.0614497 0.0567988 4.3 -0.0617553 0.0568068 4.45 -0.0620596 0.056814 4.6
-0.0623625 0.0568206 4.75 -0.0626642 0.0568264 4.9 -0.0629643 0.0568302 5.05 -0.0632667
0.0568357 5.2 -0.0635679 0.0568409 5.35 -0.0638678 0.0568458 5.5 -0.0641665 0.0568503
5.65 -0.0644614 0.0568525 5.8 -0.06476 0.0568571 5.95 -0.0650574 0.0568615 6.1
-0.0653536 0.0568658 6.25 -0.0656486 0.0568699 6.4 -0.0659386 0.0568713 6.55 -0.066233
0.0568755 6.7 -0.0665264 0.0568797 6.85 -0.0668186 0.0568837 7 -0.0671097 0.0568878
7.15 -0.0673949 0.0568887 7.3 -0.0676851 0.0568929 7.45 -0.0679743 0.056897 7.6
-0.0682623 0.056901 7.75 -0.0685493 0.056905 7.9 -0.0688298 0.0569058 8.05 -0.0691157
0.0569099 8.2 -0.0694006 0.0569141 8.35 -0.0696845 0.0569183 8.5 -0.0699672 0.0569225
8.65 -0.0702431 0.0569233 8.8 -0.0705247 0.0569276 8.95 -0.0708053 0.0569318 9.1
-0.0710847 0.056936 9.25 -0.071363 0.05694 9.4 -0.071634 0.0569405 9.55 -0.0719115
0.0569446 9.7 -0.0721885 0.0569487 9.85 -0.0724649 0.0569528 10 -0.0727409 0.0569568
-1.001 -0.05 0.106363 -0.900818 -0.0500767 0.106138 -0.800636 -0.0501508 0.105864 -0.700455
-0.0502508 0.105546 -0.600274 -0.0504197 0.105007 -0.50009 -0.0506572 0.10425 -0.424996 -0.0509367
0.10367 -0.349901 -0.0512764 0.103073 -0.274807 -0.05162 0.102548 -0.199711 -0.051908 0.10213
-0.124606 -0.0522368 0.102038 -0.0496041 -0.0524706 0.10216 0.0253981 -0.0526467 0.102395 0.1004
-0.0528089 0.102711 0.175402 -0.0529899 0.10311 0.250412 -0.0531895 0.103591 0.400347 -0.053556
0.104591 0.550283 -0.053919 0.105466 0.70022 -0.0542433 0.106251 0.850157 -0.0545362 0.10687
1.00009 -0.0547976 0.10732 1.15007 -0.055195 0.107585 1.30006 -0.0554507 0.107878 1.45005
-0.0556597 0.10815 1.60003 -0.0558621 0.108389 1.75002 -0.056058 0.108595 1.90002 -0.0563344
0.108739 2.05002 -0.0565404 0.108889 2.20001 -0.0567407 0.109024 2.35001 -0.0569384 0.109142
2.50001 -0.0571335 0.109242 2.65001 -0.0573925 0.10931 2.80001 -0.0576016 0.109375 2.95001
-0.0578096 0.109433 3.10001 -0.058017 0.109483 3.25001 -0.0582237 0.109526 3.40001 -0.0584813
0.10956 3.55001 -0.0586948 0.109591 3.70001 -0.0589067 0.109621 3.85001 -0.0591174 0.109649
4 -0.0593266 0.109674 4.15 -0.0595795 0.1097 4.3 -0.0597944 0.10972 4.45
-0.0600076 0.109739 4.6 -0.0602194 0.109757 4.75 -0.0604299 0.109775 4.9 -0.0606774
0.109797 5.05 -0.0608912 0.109811 5.2 -0.0611034 0.109825 5.35 -0.0613142 0.109838
5.5 -0.0615238 0.109851 5.65 -0.0617654 0.109871 5.8 -0.0619772 0.109881 5.95
-0.0621876 0.109891 6.1 -0.0623967 0.109901 6.25 -0.0626046 0.10991 6.4 -0.0628407
0.109929 6.55 -0.0630501 0.109936 6.7 -0.0632581 0.109943 6.85 -0.063465 0.10995
7 -0.0636707 0.109957 7.15 -0.0639014 0.109976 7.3 -0.0641081 0.109981 7.45
-0.0643135 0.109986 7.6 -0.0645178 0.109991 7.75 -0.064721 0.109995 7.9 -0.0649465
0.110013 8.05 -0.0651503 0.110017 8.2 -0.0653529 0.11002 8.35 -0.0655545 0.110024
8.5 -0.0657549 0.110027 8.65 -0.0659754 0.110045 8.8 -0.0661761 0.110048 8.95
-0.0663756 0.11005 9.1 -0.066574 0.110053 9.25 -0.0667712 0.110055 9.4 -0.0669865
0.110072 9.55 -0.0671844 0.110073 9.7 -0.0673817 0.110074 9.85 -0.0675785 0.110076
10 -0.0677748 0.110077 -1.001 -0.05 0.158995 -0.900796 -0.0500872 0.158769 -0.800593
-0.0501894 0.158422 -0.700392 -0.0503479 0.157686 -0.600196 -0.0505754 0.156477 -0.499992 -0.0508635
0.154642 -0.42472 -0.0514604 0.153045 -0.349437 -0.0519171 0.152133 -0.274149 -0.0523027 0.151586
-0.19886 -0.0526845 0.151311 -0.1237 -0.0529876 0.151386 -0.04878 -0.0530967 0.151573 0.0261389
-0.0531552 0.152066 0.101056 -0.0532694 0.152772 0.175972 -0.053409 0.153568 0.250948 -0.0535358
0.154392 0.400787 -0.0536967 0.155804 0.550627 -0.0541462 0.156978 0.70047 -0.0545637 0.157736
0.850314 -0.054912 0.158336 1.00014 -0.0552287 0.158768 1.15012 -0.055682 0.159015 1.30009
-0.0559931 0.159289 1.45007 -0.0562199 0.159554 1.60005 -0.0563766 0.159805 1.75002 -0.056527
0.160023 1.90002 -0.0567588 0.160179 2.05002 -0.0569197 0.160341 2.20002 -0.0570689 0.160489
2.35001 -0.0572097 0.160622 2.50001 -0.057348 0.160738 2.65001 -0.0575507 0.160822 2.80001
-0.0577033 0.160902 2.95001 -0.0578538 0.160976 3.10001 -0.0580027 0.161042 3.25001 -0.058151
0.161101 3.40001 -0.0583503 0.161151 3.55001 -0.0585056 0.161199 3.70001 -0.0586586 0.161245
3.85001 -0.0588097 0.16129 4 -0.0589595 0.161332 4.15 -0.0591527 0.161375 4.3
-0.0593082 0.161411 4.45 -0.0594614 0.161448 4.6 -0.0596127 0.161484 4.75 -0.0597626
0.161519 4.9 -0.0599492 0.161558 5.05 -0.0601025 0.161589 5.2 -0.0602538 0.16162
5.35 -0.0604033 0.16165 5.5 -0.0605515 0.16168 5.65 -0.0607314 0.161718 5.8
-0.0608818 0.161745 5.95 -0.0610305 0.161772 6.1 -0.0611775 0.161798 6.25 -0.0613234
0.161825 6.4 -0.061497 0.161861 6.55 -0.0616443 0.161885 6.7 -0.06179 0.161909
6.85 -0.0619342 0.161933 7 -0.0620773 0.161956 7.15 -0.0622448 0.161991 7.3
-0.0623889 0.162013 7.45 -0.0625314 0.162035 7.6 -0.0626727 0.162056 7.75 -0.0628128
0.162078 7.9 -0.0629746 0.162112 8.05 -0.0631154 0.162132 8.2 -0.0632547 0.162152
8.35 -0.0633928 0.162173 8.5 -0.0635299 0.162193 8.65 -0.0636864 0.162227 8.8
-0.0638236 0.162246 8.95 -0.0639595 0.162265 9.1 -0.0640941 0.162284 9.25 -0.0642276
0.162302 9.4 -0.0643785 0.162335 9.55 -0.0645127 0.162353 9.7 -0.064646 0.16237
9.85 -0.0647788 0.162387 10 -0.064911 0.162404 -1.001 -0.05 0.211626 -0.947612
-0.0500793 0.211468 -0.894223 -0.0501629 0.211276 -0.840835 -0.0502508 0.211051 -0.787448 -0.0503824
0.210759 -0.724202 -0.0506216 0.210279 -0.679347 -0.0508946 0.209628 -0.634497 -0.0512239 0.20875
-0.589649 -0.0515569 0.207736 -0.544805 -0.0518946 0.206585 -0.499928 -0.0522384 0.205294 -0.469377
-0.052528 0.204241 -0.438828 -0.052827 0.203126 -0.408274 -0.0531098 0.202139 -0.377716 -0.0533774
0.201275 -0.328735 -0.0537906 0.200029 -0.287949 -0.054118 0.199142 -0.247158 -0.0544445 0.198476
-0.206364 -0.054774 0.198119 -0.165568 -0.0550664 0.198047 -0.124887 -0.0552834 0.198235 -0.0496148
-0.0555583 0.198976 0.0256556 -0.055665 0.199943 0.100921 -0.0557424 0.201226 0.176186 -0.0558505
0.202579 0.244351 -0.055942 0.203613 0.245777 -0.0559436 0.203632 0.247204 -0.0559451 0.203651
0.248631 -0.0559467 0.203669 0.250057 -0.0559482 0.203688 0.251484 -0.0559498 0.203706 0.326241
-0.0560298 0.204673 0.401 -0.0561116 0.205515 0.47576 -0.056195 0.206232 0.550522 -0.0563061
[...]
POINT_DATA 2605
FIELD attributes 4
age 1 2605 float
0 0.00501118 0.0100224 0.0150335 0.0200447 0.0250559 0.0288055 0.0325531 0.0363008 0.0400486 0.0437963
0.0475447 0.0512904 0.055036 0.0587816 0.0625271 0.0700239 0.0775229 0.0850219 0.0925209 0.10002
0.10752 0.11502 0.12252 0.130019 0.137519 0.145019 0.152519 0.160019 0.167519 0.175018
0.182518 0.190018 0.197518 0.205017 0.212517 0.220017 0.227517 0.235016 0.242516 0.250016
0.257516 0.265015 0.272515 0.280015 0.287514 0.295014 0.302514 0.310014 0.317514 0.325013
0.332513 0.340013 0.347513 0.355012 0.362512 0.370012 0.377512 0.385012 0.392511 0.400011
0.407511 0.415011 0.422511 0.43001 0.43751 0.44501 0.45251 0.46001 0.467509 0.475009
0.482509 0.490009 0.497509 0.505008 0.512508 0.520008 0.527507 0.535005 0.542503 0.55
0 0.00502561 0.0100524 0.0150733 0.0200859 0.0250905 0.0288292 0.0325621 0.0362883 0.0400077
0.043721 0.0474271 0.0511265 0.0548242 0.0585218 0.0622212 0.0696324 0.0770688 0.0845199 0.0919858
0.0994662 0.106822 0.114179 0.121537 0.128897 0.13475 0.13519 0.13563 0.13607 0.136509
0.136949 0.14445 0.15195 0.159449 0.166948 0.174446 0.181944 0.189442 0.196939 0.204435
0.211932 0.219429 0.226926 0.234423 0.24192 0.249417 0.256914 0.264412 0.271909 0.279406
0.286904 0.294402 0.3019 0.309397 0.316895 0.324393 0.331892 0.33939 0.346888 0.354387
0.361885 0.369384 0.376883 0.384381 0.39188 0.399379 0.406879 0.414378 0.421877 0.429376
0.436875 0.444375 0.451875 0.459374 0.466874 0.474374 0.481875 0.489375 0.496875 0.504375
0.511875 0.519376 0.526877 0.534377 0.541878 0.549378 0 0.0050276 0.0100569 0.0150805
0.0200974 0.0251079 0.0288546 0.0325942 0.0363245 0.0400501 0.0437661 0.0474707 0.0511698 0.0548678
0.058565 0.0622617 0.0696606 0.0770864 0.0845301 0.0919957 0.0994828 0.106985 0.11449 0.121997
0.129505 0.137014 0.144529 0.152037 0.159545 0.167053 0.174559 0.182071 0.189576 0.197082
0.204587 0.212091 0.219602 0.227107 0.234611 0.242116 0.249621 0.257132 0.264637 0.272142
0.279647 0.287153 0.294664 0.30217 0.309675 0.317181 0.324686 0.332199 0.339704 0.34721
0.354716 0.362222 0.369735 0.377241 0.384747 0.392253 0.39976 0.407273 0.414779 0.422286
0.429792 0.437299 0.444813 0.45232 0.459827 0.467334 0.474841 0.482355 0.489862 0.49737
0.504877 0.512385 0.519899 0.527407 0.534915 0.542423 0.54993 0 0.00502973 0.0100654
0.0150981 0.0201249 0.0251467 0.0289119 0.0326655 0.036407 0.0401383 0.0438529 0.0475477 0.0512374
0.0549264 0.0586148 0.0623066 0.0696948 0.0771191 0.0845729 0.0920427 0.0995335 0.107045 0.114557
0.122074 0.129596 0.137118 0.144646 0.152168 0.15969 0.167212 0.174733 0.182259 0.189779
0.197298 0.204818 0.212337 0.219862 0.227381 0.2349 0.242419 0.249938 0.257464 0.264983
0.272502 0.280022 0.287542 0.295068 0.302587 0.310107 0.317627 0.325147 0.332674 0.340194
0.347714 0.355235 0.362755 0.370282 0.377803 0.385323 0.392844 0.400365 0.407892 0.415413
0.422934 0.430455 0.437977 0.445505 0.453026 0.460547 0.468069 0.475591 0.483119 0.490641
0.498163 0.505684 0.513207 0.520735 0.528258 0.53578 0.543302 0.550824 0 0.00268356
0.00536878 0.00805567 0.0107419 0.013922 0.0161759 0.0184294 0.0206821 0.0229339 0.0251866 0.0267178
0.028247 0.0297732 0.0312965 0.0337325 0.0357531 0.0377681 0.0397778 0.0417821 0.0437752 0.0474541
0.0511348 0.0548171 0.0585062 0.0618571 0.0619274 0.0619977 0.062068 0.0621382 0.0622085 0.0658921
0.0695856 0.0732889 0.0770024 0.0807256 0.0813283 0.081931 0.0825337 0.0831365 0.0837238 0.0868705
0.0900196 0.0931711 0.0963251 0.0994811 0.107 0.114521 0.122046 0.129576 0.137111 0.144652
0.152187 0.159722 0.167257 0.174791 0.182331 0.189865 0.197398 0.204931 0.212464 0.220003
0.227536 0.235069 0.242602 0.250134 0.257674 0.265207 0.27274 0.280274 0.287807 0.295347
0.302881 0.310414 0.317948 0.325482 0.333022 0.340556 0.34809 0.355625 0.363159 0.3707
0.378234 0.385769 0.393303 0.400838 0.408379 0.415914 0.423449 0.430984 0.438519 0.446061
0.453596 0.461131 0.468667 0.476202 0.483744 0.49128 0.498816 0.506352 0.513888 0.52143
0.528966 0.536502 0.544039 0.551575 0 0.00126437 0.00252912 0.00379454 0.00506075 0.00632779
0.010115 0.0139105 0.0177175 0.0215308 0.0253265 0.026908 0.0284793 0.0300438 0.0316011 0.033015
0.0333372 0.0336592 0.0339808 0.0343021 0.0346234 0.036451 0.0382716 0.0400832 0.0418897 0.0436869
0.045487 0.0472922 0.0491095 0.050932 0.0527588 0.0528282 0.0528976 0.0529671 0.0530365 0.0531076
0.0548692 0.056634 0.0584019 0.0601731 0.0619472 0.065645 0.0693595 0.0730915 0.0768337 0.0805841
0.0843468 0.0881086 0.0918711 0.0956361 0.0994036 0.106938 0.114475 0.122015 0.12956 0.137108
0.144672 0.152222 0.159773 0.167324 0.174874 0.182432 0.189981 0.197531 0.20508 0.212628
0.220184 0.227733 0.235281 0.24283 0.250379 0.257935 0.265484 0.273033 0.280582 0.288131
0.295688 0.303237 0.310786 0.318336 0.325885 0.333442 0.340992 0.348542 0.356091 0.363641
0.371199 0.378749 0.386299 0.393849 0.401399 0.408957 0.416507 0.424058 0.431608 0.439159
0.446717 0.454267 0.461818 0.469369 0.47692 0.484478 0.492029 0.499581 0.507132 0.514683
0.522242 0.529793 0.537345 0.544896 0.552447 0 0.00126538 0.00253126 0.00379766 0.00506457
0.00633201 0.00822624 0.0101228 0.0120219 0.0139237 0.0158277 0.0177449 0.019667 0.02159 0.0235161
0.0254544 0.0264253 0.0273935 0.0283572 0.0293165 0.0302755 0.0307476 0.0312181 0.0316865 0.0321529
0.0326645 0.0331227 0.0335789 0.0340331 0.0344852 0.0349348 0.0358446 0.0367512 0.0376538 0.0385521
0.0394415 0.0403303 0.0412177 0.0421044 0.0429909 0.0438783 0.0451039 0.046335 0.0475719 0.0488144
0.048971 0.0497514 0.0505334 0.051317 0.0521024 0.0528886 0.0547182 0.0565613 0.0584158 0.060277
0.0621389 0.0640106 0.0658833 0.0677579 0.069635 0.0715161 0.0734045 0.0752874 0.0771667 0.0790477
0.0809336 0.0840118 0.0870942 0.0901777 0.0932622 0.0958886 0.0966941 0.0974999 0.0983057 0.0991117
0.0999178 0.107504 0.115094 0.122688 0.130287 0.137892 0.145521 0.153126 0.160727 0.168327
0.175927 0.183545 0.191143 0.198738 0.206334 0.21393 0.221543 0.229139 0.236733 0.244327
0.251922 0.259533 0.267128 0.274721 0.282315 0.289909 0.297519 0.305113 0.312707 0.3203
0.327894 0.335503 0.343096 0.350689 0.358282 0.365876 0.373483 0.381076 0.388669 0.396262
0.403855 0.411461 0.419054 0.426646 0.434239 0.441831 0.449436 0.457029 0.464621 0.472213
0.479805 0.487409 0.495001 0.502593 0.510184 0.517776 0.525379 0.53297 0.540562 0.548153
0.555745 0 0.00126273 0.00252613 0.00379057 0.00505617 0.00632295 0.00823285 0.0101447 0.0120604
0.0139794 0.0159036 0.0178207 0.0197507 0.0216935 0.0236489 0.0256266 0.0266262 0.0276266 0.0286274
0.0296272 0.0306389 0.0308806 0.0311224 0.0313639 0.0316035 0.0317904 0.0325457 0.0332883 0.0340179
0.0347337 0.0354414 0.0358881 0.036333 0.0367764 0.0372182 0.0376541 0.0380911 0.0385252 0.0389566
0.0393874 0.0398159 0.0402474 0.0406789 0.0411105 0.0415427 0.0419779 0.0424131 0.0428479 0.0432831
0.0437193 0.0441578 0.0450349 0.0459218 0.0468199 0.0477291 0.0486552 0.0493519 0.050048 0.0507462
0.0514472 0.0523191 0.0525252 0.0527314 0.0529377 0.0531442 0.0533509 0.0543061 0.055259 0.0562137
0.0571728 0.0581334 0.0591022 0.0600703 0.0610394 0.0620113 0.0629849 0.0649514 0.0669131 0.0688698
0.0708302 0.0727737 0.0747031 0.0766474 0.0786069 0.0805705 0.0825371 0.0864868 0.0904297 0.0943481
0.0982533 0.10216 0.109967 0.117743 0.125456 0.133116 0.140782 0.148477 0.156151 0.163821
0.171486 0.179149 0.186827 0.194489 0.202149 0.209806 0.217464 0.225135 0.232791 0.240447
0.248101 0.255755 0.263421 0.271075 0.278728 0.28638 0.294031 0.301694 0.309346 0.316996
0.324646 0.332296 0.339955 0.347604 0.355253 0.3629 0.370548 0.378204 0.385852 0.393498
0.401144 0.408789 0.416443 0.424088 0.431733 0.439376 0.44702 0.454671 0.462314 0.469957
0.477599 0.485241 0.492889 0.50053 0.508171 0.515811 0.523451 0.531096 0.538735 0.546374
0.554013 0.561652 0 0.00126438 0.0025294 0.00379507 0.00506138 0.00632894 0.0082459 0.0101653
0.012088 0.0140169 0.015958 0.016928 0.0179009 0.0188769 0.0198561 0.0208385 0.021826 0.0228217
0.0238263 0.0248399 0.0258639 0.0263815 0.0269008 0.0274238 0.0279504 0.0284834 0.0287608 0.0290395
0.0293202 0.0296035 0.0297036 0.0300132 0.0303245 0.0306368 0.0309488 0.0312697 0.031373 0.0314763
0.0315798 0.0316834 0.0317579 0.0317792 0.0318006 0.0318219 0.0318432 0.0318639 0.0320346 0.0322051
0.0323755 0.0325457 0.0327174 0.032888 0.0330582 0.033228 0.0333952 0.0335203 0.0336328 0.0337447
0.0338559 0.033966 0.0340779 0.0341954 0.0343111 0.0344253 0.0345382 0.0346293 0.0346708 0.0347121
0.0347533 0.0347942 0.0348345 0.0349384 0.0350419 0.0351448 0.0352472 0.0353479 0.0354618 0.0355744
0.0356857 0.0357961 0.035972 0.0360832 0.0361939 0.0363043 0.0364145 0.0365119 0.0366113 0.0367109
0.0368104 0.0369099 0.037107 0.0372104 0.0373137 0.0374168 0.0375197 0.0376216 0.0378399 0.0380569
0.0382741 0.038492 0.0387065 0.0389241 0.0391413 0.0393589 0.0395768 0.0397946 0.0400146 0.0402335
0.0404527 0.0406721 0.040892 0.0411116 0.0413308 0.0415503 0.0417706 0.0419929 0.0422163 0.042438
0.0426603 0.0428832 0.0431072 0.0434732 0.0438412 0.0442151 0.0445951 0.0447473 0.0448822 0.0450173
0.0451528 0.0452885 0.0454251 0.0459089 0.0463874 0.0468667 0.0473416 0.0478362 0.0483496 0.048854
0.049363 0.0498768 0.0503977 0.0504703 0.0505431 0.0506159 0.050689 0.0507611 0.0517681 0.0528191
0.0539071 0.054957 0.0560182 0.0572176 0.058393 0.0595748 0.0607622 0.0619491 0.0624009 0.0628514
0.0633016 0.0637523 0.0642656 0.064801 0.0653329 0.0658642 0.0663966 0.0670199 0.067211 0.0674021
0.067593 0.0677839 0.0679745 0.069176 0.0703593 0.0715412 0.0727213 0.0738943 0.0750422 0.0762177
0.0773974 0.0785793 0.079762 0.081347 0.0829331 0.0845263 0.0861181 0.0881957 0.0888011 0.0894044
0.0900057 0.0906049 0.0912018 0.0956888 0.100151 0.104551 0.108869 0.113053 0.121206 0.1293
0.137328 0.145288 0.153171 0.160928 0.168686 0.176441 0.184193 0.191943 0.199688 0.207433
0.215177 0.222918 0.230658 0.237803 0.244948 0.252091 0.259234 0.266541 0.267099 0.267656
0.268214 0.268771 0.269329 0.277059 0.284789 0.292519 0.30025 0.30798 0.315702 0.323432
0.331161 0.338891 0.34662 0.354336 0.362065 0.369793 0.377522 0.38525 0.39296 0.400687
0.408415 0.416143 0.42387 0.431573 0.4393 0.447026 0.454753 0.462479 0.470177 0.477902
0.485627 0.493353 0.501078 0.50877 0.516494 0.524218 0.531942 0.539665 0.547352 0.555073
0.562795 0.570517 0.578239 0 0.0012541 0.00250914 0.00376549 0.00502329 0.00628265 0.00821391
0.0101479 0.0120846 0.0140284 0.0159865 0.0169592 0.0179357 0.0189163 0.0199009 0.0208896 0.0218841
0.0228892 0.023906 0.0249346 0.0259762 0.0265048 0.0270366 0.0275751 0.0281205 0.0286747 0.0292402
0.0298135 0.0303994 0.0309993 0.0316264 0.0319454 0.0322644 0.0325843 0.0329051 0.0332407 0.0332806
0.0333205 0.0333604 0.0334003 0.033436 0.0335481 0.0336602 0.0337699 0.033878 0.0339556 0.0341251
0.0342914 0.0344545 0.0346141 0.0347787 0.0349232 0.0350648 0.0352038 0.0353394 0.0354598 0.0355785
0.0356966 0.0358141 0.0359301 0.0360404 0.0361593 0.0362749 0.0363875 0.0364996 0.0366483 0.0367534
0.0368585 0.0369633 0.0370679 0.0371641 0.0373178 0.0374714 0.0376271 0.0377847 0.0380565 0.0383505
0.0386504 0.0389517 0.0392495 0.0395392 0.0400023 0.0404585 0.0409113 0.0413611 0.0418064 0.0422684
0.0427116 0.0431579 0.0436074 0.0440618 0.0445405 0.0450133 0.0454911 0.0459744 0.0464673 0.0472108
0.04797 0.0487386 0.0495216 0.0495866 0.0500349 0.0504831 0.0509296 0.0513744 0.0518209 0.0529577
0.0540903 0.0552483 0.0564303 0.0576511 0.058933 0.0601861 0.0614123 0.0626457 0.0638895 0.065013
0.0661194 0.0672196 0.068313 0.0701191 0.0701242 0.0701294 0.0701346 0.0701398 0.070145 0.0707456
0.0713499 0.0719508 0.072551 0.0732438 0.073248 0.0732523 0.0732565 0.0732607 0.0732649 0.0738889
0.0745128 0.0751366 0.0757602 0.0763806 0.0776279 0.0788788 0.0801382 0.0814038 0.0826677 0.0851713
0.0876808 0.0901642 0.092603 0.0950096 0.0998576 0.10465 0.109299 0.113808 0.118161 0.121931
0.125688 0.129432 0.133162 0.137823 0.142168 0.146462 0.150708 0.154906 0.159056 0.166813
0.174577 0.18234 0.190101 0.197861 0.205602 0.21336 0.221118 0.228874 0.236631 0.244361
0.252115 0.25987 0.267624 0.275378 0.2831 0.290853 0.298605 0.306358 0.314111 0.321825
0.329577 0.337328 0.345079 0.35283 0.360539 0.368288 0.376038 0.383788 0.391538 0.39924
0.406988 0.414736 0.422484 0.430232 0.437929 0.445675 0.453421 0.461168 0.468914 0.476605
0.48435 0.492094 0.499839 0.507583 0.51527 0.523012 0.530755 0.538497 0.546239 0.55392
0.56166 0.569399 0.577138 0.584878 0 0.00125902 0.00251872 0.00377909 0.00504089 0.00630434
0.00823303 0.0101647 0.0120992 0.0140412 0.0159973 0.0169702 0.0179472 0.0189283 0.0199136 0.0209032
0.0218977 0.0229028 0.0239196 0.0249482 0.0259898 0.0265188 0.0270508 0.0275885 0.0281329 0.0286867
0.0292497 0.0298205 0.0304009 0.0309938 0.0316166 0.031933 0.0322501 0.0325675 0.032885 0.0332149
0.0334547 0.0336932 0.0339297 0.03416 0.0342565 0.0343592 0.0344609 0.0345615 0.034661 0.0347632
0.0349649 0.0351597 0.0353479 0.0355301 0.0356878 0.0357658 0.0358436 0.0359208 0.0359972 0.036072
0.0361099 0.0361476 0.0361853 0.0362231 0.0362646 0.0363797 0.036494 0.0366075 0.03672 0.0368755
0.0369471 0.0370186 0.0370901 0.0371614 0.0372293 0.0376884 0.0381541 0.0386332 0.0391204 0.0395352
0.0399977 0.040449 0.0409004 0.0413538 0.0418135 0.0422893 0.0427551 0.0432196 0.0436861 0.0441586
0.0446511 0.045132 0.0456118 0.0460966 0.0465908 0.0476247 0.0486793 0.0497476 0.0508281 0.0516656
0.0517218 0.0517781 0.0518344 0.0518907 0.051947 0.053075 0.0542276 0.0554092 0.0566161 0.0578398
0.0591004 0.0603443 0.0615807 0.0628336 0.0640787 0.0647042 0.0653209 0.0659354 0.0665476 0.0671611
0.0677876 0.068405 0.0690225 0.0696425 0.0702611 0.0711299 0.0720001 0.0728701 0.0737391 0.0753689
0.0756052 0.0758418 0.0760787 0.0763158 0.0765531 0.0773268 0.0780976 0.0788678 0.079638 0.0804857
0.0809653 0.0814455 0.0819263 0.0824076 0.0828879 0.0854158 0.0879263 0.0904219 0.0928635 0.0952717
0.100058 0.104789 0.109402 0.113889 0.118229 0.125867 0.133392 0.140774 0.148017 0.159406
0.166255 0.173103 0.179948 0.186791 0.19387 0.194723 0.195575 0.196427 0.197279 0.19813
0.205867 0.213605 0.221342 0.229078 0.236813 0.244539 0.252274 0.260008 0.267742 0.275475
0.283193 0.290926 0.298659 0.306392 0.314125 0.321836 0.329568 0.3373 0.345032 0.352763
0.360468 0.368199 0.37593 0.38366 0.391391 0.39909 0.406819 0.414549 0.422278 0.430008
0.437701 0.445429 0.453158 0.460886 0.468614 0.476302 0.484029 0.491755 0.499482 0.507209
0.514892 0.522617 0.530343 0.538067 0.545792 0.55347 0.561193 0.568915 0.576638 0.584361
0 0.00127993 0.0025605 0.00384234 0.00512565 0.00641046 0.00831692 0.0102259 0.0121377 0.0140559
0.0159863 0.0169583 0.0179335 0.018912 0.019894 0.0208795 0.0218738 0.0228771 0.0238903 0.0249135
0.0259488 0.02641 0.0268729 0.0273395 0.0278098 0.027927 0.0280623 0.0281977 0.0283332 0.0284688
0.0286046 0.0291483 0.0296962 0.0302515 0.0308156 0.0314007 0.0314071 0.0314134 0.0314198 0.0314262
0.0314324 0.0315024 0.0315724 0.0316423 0.0317122 0.0317736 0.0319898 0.0322059 0.0324218 0.0326377
0.032857 0.0329443 0.0330316 0.0331188 0.0332057 0.03328 0.0334843 0.0336877 0.03389 0.0340893
0.0342945 0.0343561 0.0344172 0.034478 0.0345383 0.0345913 0.0346029 0.0346146 0.0346262 0.0346378
0.0346493 0.0348593 0.0350649 0.0352663 0.0354601 0.0356449 0.0356719 0.0356988 0.0357256 0.0357524
0.03578 0.0358748 0.0359688 0.0360618 0.0361562 0.0362913 0.0363874 0.036483 0.0365778 0.0366718
0.0367632 0.0368783 0.0369925 0.0371061 0.0372199 0.0373918 0.0374773 0.0375627 0.0376482 0.0377344
0.037819 0.0380315 0.0382422 0.0384528 0.0386628 0.0388751 0.0390953 0.0393109 0.0395221 0.0397336
0.0399479 0.0401644 0.0403791 0.0405924 0.0408063 0.0410237 0.0412456 0.041464 0.0416804 0.0418971
0.042115 0.0423342 0.0425517 0.0427687 0.0429862 0.0432056 0.0436521 0.0440985 0.0445481 0.0450013
0.0454629 0.0459423 0.046409 0.0468691 0.0473322 0.0478087 0.0482932 0.0487754 0.0492578 0.0497446
0.0502393 0.0512595 0.0522867 0.0533263 0.0544216 0.0555348 0.0559283 0.0563219 0.0567168 0.0571136
0.0575319 0.0583065 0.0590801 0.059853 0.0606306 0.0614165 0.0626336 0.0638177 0.0650043 0.0662089
0.0674204 0.0686711 0.0698925 0.0710888 0.0722779 0.0734594 0.0742269 0.0749919 0.0757582 0.0765258
0.0772682 0.0774307 0.0775933 0.0777559 0.0779185 0.0780837 0.0783482 0.0786129 0.0788777 0.0791426
0.0794076 0.0817905 0.0841753 0.0865612 0.0889155 0.0912332 0.0957853 0.10039 0.104892 0.109219
0.113434 0.121736 0.130002 0.138211 0.146248 0.154117 0.161855 0.169595 0.177331 0.185063
0.192793 0.200517 0.208243 0.215966 0.223688 0.231408 0.239124 0.246841 0.254556 0.262271
0.269983 0.27598 0.281977 0.287973 0.293969 0.29999 0.301697 0.303405 0.305113 0.306821
0.308529 0.316234 0.323941 0.331648 0.339355 0.347062 0.354762 0.362468 0.370174 0.377881
0.385587 0.393281 0.400986 0.408692 0.416397 0.424103 0.431792 0.439496 0.447201 0.454906
0.46261 0.470294 0.477998 0.485702 0.493405 0.501109 0.508788 0.516491 0.524193 0.531896
0.539598 0.547272 0.554973 0.562673 0.570374 0.578076 0 0.00127755 0.00255581 0.00383519
0.00511586 0.00639782 0.00829946 0.010203 0.0121095 0.0140208 0.0159402 0.0169045 0.0178706 0.0188387
0.019809 0.0207816 0.0217555 0.0227345 0.0237188 0.0247076 0.0257003 0.0266913 0.0276887 0.0286947
0.0296962 0.0307057 0.0307844 0.0308631 0.0309418 0.0310203 0.0310926 0.0320124 0.0329129 0.0337932
0.0346527 0.0355104 0.0359594 0.0364062 0.036851 0.0372946 0.0377328 0.0381724 0.0386095 0.0390459
0.0394816 0.0399114 0.0403453 0.0407794 0.0412138 0.0416484 0.0420835 0.0425203 0.042956 0.0433927
0.0438303 0.0442698 0.0451492 0.0460375 0.0469324 0.0478354 0.048763 0.0497141 0.0506561 0.0515892
0.0525295 0.0534804 0.0543479 0.0552231 0.0561011 0.0569812 0.0584286 0.0594014 0.0603751 0.0613489
0.0623223 0.0632944 0.0653037 0.0672978 0.0692806 0.0712738 0.0732698 0.0752365 0.0772339 0.0792446
0.0812599 0.0832767 0.0873098 0.0913648 0.0953829 0.0993444 0.103298 0.106805 0.110319 0.113838
0.117345 0.121658 0.125913 0.130146 0.134358 0.138549 0.142718 0.150428 0.158141 0.165851
0.173559 0.181265 0.188959 0.19666 0.20436 0.212059 0.219756 0.227443 0.235137 0.24283
0.250522 0.258214 0.265896 0.273585 0.281273 0.28896 0.296647 0.304325 0.31201 0.319693
0.327376 0.335058 0.342733 0.350413 0.358092 0.365771 0.373448 0.38112 0.388796 0.396471
0.404145 0.411818 0.419487 0.427159 0.43483 0.442501 0.450171 0.457837 0.465505 0.473172
0.480839 0.488505 0.496169 0.503833 0.511497 0.519161 0.526823 0.534483 0.542144 0.549805
0.557465 0.565125 0 0.00127412 0.00254887 0.00382407 0.0051005 0.00637816 0.00827414 0.0101722
0.0120727 0.0139761 0.0158837 0.0177932 0.019708 0.0216278 0.0235523 0.0254849 0.0264561 0.0274242
0.0283875 0.0293458 0.0299703 0.0309877 0.0319974 0.0329968 0.0339862 0.0349641 0.0358738 0.0367802
0.0376826 0.0385821 0.0394724 0.0403639 0.0412538 0.0421426 0.0430304 0.0439172 0.0456955 0.047491
0.049301 0.0511208 0.052957 0.0539807 0.0550061 0.0560345 0.0570659 0.0587609 0.0594544 0.0601491
0.0608448 0.0615416 0.0622394 0.0641159 0.0659952 0.0678773 0.069762 0.0716487 0.0735454 0.0754342
0.0773241 0.0792156 0.0811082 0.0849079 0.0887073 0.0925118 0.0963212 0.100144 0.10785 0.115558
0.123217 0.130838 0.138474 0.146122 0.153768 0.161413 0.169056 0.176697 0.184343 0.191985
0.199625 0.207265 0.214902 0.222543 0.230181 0.237818 0.245453 0.253088 0.260726 0.268361
0.275995 0.283628 0.29126 0.298896 0.306529 0.31416 0.321791 0.329421 0.337054 0.344685
0.352314 0.359943 0.367571 0.375202 0.38283 0.390458 0.398085 0.405711 0.413339 0.420966
0.428591 0.436216 0.44384 0.451467 0.459091 0.466715 0.474338 0.48196 0.489584 0.497207
0.504829 0.51245 0.52007 0.527692 0.535312 0.542932 0.550552 0.558171 0 0.00127145
0.00254329 0.00381567 0.00508863 0.00636221 0.0101418 0.013933 0.0177235 0.0215109 0.0253025 0.0257885
0.0262734 0.0267574 0.0272405 0.0276628 0.0290584 0.0304488 0.031834 0.033214 0.0345916 0.0364335
0.0382657 0.0400812 0.0418927 0.043699 0.045511 0.0473203 0.0491307 0.0509496 0.0527797 0.0546161
0.0564538 0.0582943 0.0601378 0.0619838 0.0656863 0.0694025 0.0731339 0.0768808 0.0806323 0.0844043