# vtk DataFile Version 2.0
tracks
ASCII
DATASET POLYDATA
POINTS 2590 float
-1.001 -0.05 0.0011 -0.900789 -0.0500215 0.00109732 -0.800577 -0.0500429 0.00109464 -0.700366 -0.0500643
0.00109197 -0.600155 -0.0500856 0.00108931 -0.499943 -0.0501069 0.00108665 -0.424945 -0.0501108 0.00107897
-0.349947 -0.0501516 0.00106888 -0.274949 -0.050192 0.00105888 -0.19995 -0.0502321 0.00104897 -0.124952
-0.0502717 0.00103916 -0.0499538 -0.0502812 0.00103939 0.0250446 -0.0502902 0.00104811 0.100043 -0.0502993
0.00105689 0.175041 -0.0503085 0.00106575 0.25004 -0.0503177 0.00107469 0.400037 -0.0503118 0.00109075
0.550035 -0.05031 0.00110493 0.700032 -0.0503082 0.00111929 0.85003 -0.0503063 0.00113385 1.00003
-0.0503044 0.00114859 1.15003 -0.0503151 0.00115579 1.30002 -0.0503208 0.00116023 1.45002 -0.0503265
0.00116468 1.60002 -0.0503322 0.00116916 1.75002 -0.0503379 0.00117365 1.90002 -0.0503464 0.00117652
2.05002 -0.0503529 0.00117842 2.20001 -0.0503593 0.00118033 2.35001 -0.0503658 0.00118224 2.50001
-0.0503722 0.00118415 2.65001 -0.0503802 0.00118521 2.80001 -0.0503882 0.00118587 2.95001 -0.0503963
0.00118654 3.10001 -0.0504043 0.0011872 3.25001 -0.0504124 0.00118787 3.40001 -0.0504202 0.00118816
3.55001 -0.050429 0.00118872 3.70001 -0.0504378 0.00118928 3.85001 -0.0504465 0.00118984 4.00001
-0.0504553 0.0011904 4.15 -0.0504631 0.00119049 4.3 -0.0504726 0.00119115 4.45 -0.0504821
0.0011918 4.6 -0.0504916 0.00119246 4.75 -0.0505012 0.00119312 4.9 -0.0505088 0.00119313
5.05 -0.0505188 0.00119395 5.2 -0.0505289 0.00119477 5.35 -0.0505389 0.00119559 5.5
-0.0505489 0.00119642 5.65 -0.0505564 0.00119638 5.8 -0.0505668 0.00119736 5.95 -0.0505771
0.00119835 6.1 -0.0505874 0.00119934 6.25 -0.0505977 0.00120032 6.4 -0.0506052 0.00120026
6.55 -0.0506157 0.00120138 6.7 -0.0506263 0.00120251 6.85 -0.0506368 0.00120363 7
-0.0506474 0.00120476 7.15 -0.0506548 0.00120467 7.3 -0.0506654 0.00120591 7.45 -0.0506761
0.00120715 7.6 -0.0506868 0.00120839 7.75 -0.0506975 0.00120963 7.9 -0.0507049 0.00120952
8.05 -0.0507157 0.00121085 8.2 -0.0507265 0.00121219 8.35 -0.0507373 0.00121352 8.5
-0.0507481 0.00121486 8.65 -0.0507554 0.00121475 8.8 -0.0507663 0.00121616 8.95 -0.0507772
0.00121758 9.1 -0.0507881 0.001219 9.25 -0.050799 0.00122042 9.4 -0.0508062 0.00122029
9.55 -0.0508635 0.00122243 9.7 -0.0509723 0.0012253 9.85 -0.0511326 0.00122892 10
-0.0513445 0.00123327 -1.001 -0.05 0.0537316 -0.900807 -0.0501054 0.0535767 -0.800614 -0.0502111
0.0533946 -0.700421 -0.0503401 0.0531789 -0.600229 -0.0504999 0.0529276 -0.500035 -0.0506904 0.052641
-0.425004 -0.0509373 0.0524191 -0.349973 -0.0512734 0.0521303 -0.274943 -0.0516569 0.0518625 -0.199912
-0.0520743 0.0516369 -0.124879 -0.0524765 0.0514934 -0.0498864 -0.0527434 0.0515302 0.0251065 -0.0529646
0.0516956 0.100099 -0.0531814 0.0519295 0.175092 -0.0534077 0.0522114 0.250087 -0.0536293 0.0525281
0.400077 -0.0540186 0.0531618 0.550067 -0.0544047 0.0536757 0.700057 -0.0547493 0.0541411 0.850047
-0.0550524 0.0545577 1.00003 -0.0553219 0.054925 1.14673 -0.0556909 0.055203 1.29343 -0.0560283
0.0554625 1.44012 -0.056363 0.0556885 1.58682 -0.0566951 0.055881 1.70425 -0.056959 0.0560082
1.71341 -0.0569803 0.0560167 1.72256 -0.0570017 0.0560252 1.73171 -0.0570233 0.0560336 1.74086
-0.0570449 0.0560419 1.75002 -0.0570666 0.0560502 1.90002 -0.0574246 0.0561839 2.05002 -0.0577782
0.0563004 2.20001 -0.0581279 0.0563993 2.35001 -0.0584738 0.0564805 2.50001 -0.0588159 0.0565441
2.65001 -0.0591633 0.0565968 2.80001 -0.0595102 0.0566426 2.95001 -0.0598563 0.0566807 3.10001
-0.0602015 0.0567111 3.25001 -0.0605459 0.0567339 3.40001 -0.0608915 0.0567516 3.55001 -0.0612382
0.0567686 3.70001 -0.0615835 0.0567835 3.85001 -0.0619272 0.0567964 4.00001 -0.0622694 0.0568072
4.15 -0.0626097 0.0568157 4.3 -0.0629534 0.0568251 4.45 -0.0632957 0.0568337 4.6
-0.0636366 0.0568416 4.75 -0.0639759 0.0568486 4.9 -0.0643106 0.0568535 5.05 -0.0646505
0.0568601 5.2 -0.0649889 0.0568664 5.35 -0.065326 0.0568722 5.5 -0.0656617 0.0568776
5.65 -0.065991 0.0568805 5.8 -0.0663264 0.0568858 5.95 -0.0666606 0.0568909 6.1
-0.0669935 0.0568957 6.25 -0.0673253 0.0569002 6.4 -0.0676494 0.0569017 6.55 -0.0679803
0.0569063 6.7 -0.0683102 0.0569106 6.85 -0.0686388 0.0569147 7 -0.0689663 0.0569186
7.15 -0.0692854 0.0569193 7.3 -0.0696119 0.0569233 7.45 -0.0699372 0.0569271 7.6
-0.0702614 0.0569308 7.75 -0.0705845 0.0569343 7.9 -0.0708986 0.0569344 8.05 -0.0712205
0.056938 8.2 -0.0715413 0.0569416 8.35 -0.0718611 0.0569452 8.5 -0.0721797 0.0569488
8.65 -0.0724889 0.0569486 8.8 -0.0728062 0.0569523 8.95 -0.0731224 0.0569558 9.1
-0.0734375 0.0569592 9.25 -0.0737514 0.0569625 9.4 -0.0740556 0.0569619 9.55 -0.0743686
0.0569652 9.7 -0.0746811 0.0569686 9.85 -0.0749931 0.0569719 10 -0.0753046 0.0569752
-1.001 -0.05 0.106363 -0.900818 -0.0500774 0.106139 -0.800636 -0.0501525 0.105866 -0.700455
-0.0502542 0.105548 -0.600274 -0.0504258 0.105007 -0.50009 -0.0506671 0.104246 -0.424996 -0.050953
0.103661 -0.349901 -0.0513001 0.103057 -0.274807 -0.0516517 0.102521 -0.199711 -0.0519492 0.102093
-0.124607 -0.0522913 0.101991 -0.0496046 -0.05254 0.102103 0.0253975 -0.0527344 0.102333 0.100399
-0.052916 0.102644 0.175401 -0.0531182 0.103039 0.250411 -0.0533406 0.103519 0.400346 -0.0537503
0.104515 0.550283 -0.0541578 0.105384 0.700219 -0.0545261 0.106165 0.850157 -0.0548637 0.106781
1.00009 -0.0551702 0.107231 1.15007 -0.0556125 0.107496 1.30006 -0.0559099 0.107793 1.45005
-0.0561561 0.108069 1.60003 -0.0563964 0.108313 1.75002 -0.0566308 0.108525 1.90002 -0.0569395
0.10867 2.05002 -0.0571844 0.108826 2.20001 -0.0574235 0.108965 2.35001 -0.05766 0.109088
2.50001 -0.057894 0.109193 2.65001 -0.0581848 0.109263 2.80001 -0.0584332 0.109332 2.95001
-0.0586804 0.109392 3.10001 -0.0589268 0.109445 3.25001 -0.0591725 0.109491 3.40001 -0.0594616
0.109527 3.55001 -0.0597139 0.10956 3.70001 -0.0599642 0.109592 3.85001 -0.060213 0.109622
4 -0.0604601 0.10965 4.15 -0.060743 0.109677 4.3 -0.0609952 0.109699 4.45
-0.0612455 0.10972 4.6 -0.0614942 0.10974 4.75 -0.0617414 0.10976 4.9 -0.0620177
0.109784 5.05 -0.0622679 0.109799 5.2 -0.0625163 0.109815 5.35 -0.0627634 0.109829
5.5 -0.063009 0.109844 5.65 -0.0632789 0.109865 5.8 -0.0635265 0.109877 5.95
-0.0637726 0.109888 6.1 -0.0640174 0.109899 6.25 -0.064261 0.109909 6.4 -0.0645249
0.109929 6.55 -0.0647696 0.109937 6.7 -0.065013 0.109945 6.85 -0.0652552 0.109953
7 -0.0654962 0.10996 7.15 -0.0657543 0.10998 7.3 -0.0659961 0.109985 7.45
-0.0662365 0.109991 7.6 -0.0664758 0.109996 7.75 -0.0667139 0.110001 7.9 -0.0669665
0.110019 8.05 -0.067205 0.110023 8.2 -0.0674423 0.110027 8.35 -0.0676785 0.11003
8.5 -0.0679136 0.110034 8.65 -0.0681609 0.110051 8.8 -0.068396 0.110054 8.95
-0.0686299 0.110057 9.1 -0.0688626 0.110059 9.25 -0.0690943 0.110061 9.4 -0.0693359
0.110078 9.55 -0.0695679 0.110079 9.7 -0.0697992 0.11008 9.85 -0.0700301 0.11008
10 -0.0702605 0.110081 -1.001 -0.05 0.158995 -0.900796 -0.0500879 0.15877 -0.800593
-0.0501916 0.158425 -0.700392 -0.0503524 0.157689 -0.600196 -0.0505832 0.156478 -0.499992 -0.0508755
0.154639 -0.42472 -0.051482 0.153038 -0.349437 -0.0519479 0.152119 -0.274149 -0.0523431 0.151558
-0.19886 -0.0527366 0.151266 -0.1237 -0.0530533 0.15132 -0.0487805 -0.0531771 0.151482 0.0261372
-0.0532568 0.151961 0.101053 -0.0533982 0.152662 0.175968 -0.0535666 0.153457 0.250944 -0.0537222
0.154282 0.400783 -0.0539367 0.155699 0.550624 -0.0544463 0.156873 0.700468 -0.0549203 0.157625
0.850313 -0.0553203 0.158222 1.00014 -0.0556891 0.158653 1.15012 -0.0561946 0.158899 1.30009
-0.0565545 0.159177 1.45007 -0.0568209 0.159445 1.60005 -0.05701 0.159701 1.75002 -0.0571933
0.159923 1.90002 -0.057452 0.160079 2.05002 -0.0576463 0.160246 2.20002 -0.0578283 0.160398
2.35001 -0.0580015 0.160536 2.50001 -0.0581722 0.160656 2.65001 -0.0584002 0.160741 2.80001
-0.0585856 0.160824 2.95001 -0.0587687 0.1609 3.10001 -0.0589501 0.160969 3.25001 -0.0591309
0.16103 3.40001 -0.0593551 0.161082 3.55001 -0.0595425 0.161132 3.70001 -0.0597272 0.16118
3.85001 -0.0599096 0.161227 4 -0.0600904 0.161272 4.15 -0.0603068 0.161316 4.3
-0.0604927 0.161355 4.45 -0.060676 0.161393 4.6 -0.060857 0.161431 4.75 -0.0610366
0.161468 4.9 -0.061245 0.16151 5.05 -0.0614275 0.161543 5.2 -0.0616078 0.161576
5.35 -0.0617862 0.161609 5.5 -0.0619631 0.161641 5.65 -0.062164 0.16168 5.8
-0.0623429 0.16171 5.95 -0.0625198 0.161738 6.1 -0.0626951 0.161767 6.25 -0.0628691
0.161795 6.4 -0.063063 0.161833 6.55 -0.0632382 0.161859 6.7 -0.0634116 0.161885
6.85 -0.0635835 0.161911 7 -0.0637542 0.161936 7.15 -0.0639415 0.161973 7.3
-0.0641129 0.161996 7.45 -0.0642827 0.162019 7.6 -0.064451 0.162042 7.75 -0.0646183
0.162065 7.9 -0.0647995 0.162101 8.05 -0.0649671 0.162122 8.2 -0.0651332 0.162143
8.35 -0.0652979 0.162165 8.5 -0.0654616 0.162186 8.65 -0.0656369 0.162221 8.8
-0.0658006 0.162241 8.95 -0.0659628 0.162261 9.1 -0.0661235 0.162281 9.25 -0.0662831
0.1623 9.4 -0.0664523 0.162334 9.55 -0.0666122 0.162352 9.7 -0.0667712 0.16237
9.85 -0.0669296 0.162388 10 -0.0670874 0.162405 -1.001 -0.05 0.211626 -0.947635
-0.0500802 0.21147 -0.894271 -0.050165 0.211279 -0.840907 -0.0502544 0.211055 -0.787543 -0.0503882
0.210765 -0.724346 -0.0506315 0.210288 -0.679462 -0.0509088 0.209638 -0.634583 -0.0512435 0.20876
-0.589707 -0.0515821 0.207745 -0.544834 -0.0519256 0.206593 -0.499928 -0.0522754 0.2053 -0.469373
-0.0525699 0.204246 -0.43882 -0.0528746 0.203128 -0.408262 -0.0531636 0.202138 -0.377701 -0.0534381
0.20127 -0.329284 -0.0538578 0.200029 -0.288388 -0.0541963 0.199126 -0.247487 -0.0545348 0.19844
-0.206582 -0.0548778 0.198065 -0.165675 -0.0551853 0.197976 -0.124885 -0.0554188 0.198149 -0.0496128
-0.055726 0.19886 0.0256569 -0.055865 0.199808 0.100922 -0.0559769 0.201085 0.176185 -0.0561225
0.202442 0.251487 -0.0562612 0.203593 0.25183 -0.0562617 0.203597 0.252173 -0.0562622 0.203602
0.252516 -0.0562628 0.203606 0.252859 -0.0562633 0.203611 0.253204 -0.0562638 0.203615 0.327617
-0.0563797 0.204587 0.402032 -0.0564973 0.205433 0.476448 -0.0566166 0.206152 0.550866 -0.0567644
[...]
POINT_DATA 2590
FIELD attributes 4
age 1 2590 float
0 0.00501121 0.0100224 0.0150336 0.0200448 0.025056 0.0288056 0.0325533 0.036301 0.0400488 0.0437965
0.0475449 0.0512906 0.0550362 0.0587817 0.0625273 0.070024 0.077523 0.0850219 0.0925209 0.10002
0.10752 0.115019 0.122519 0.130019 0.137519 0.145019 0.152519 0.160019 0.167518 0.175018
0.182518 0.190018 0.197517 0.205017 0.212517 0.220017 0.227516 0.235016 0.242516 0.250015
0.257515 0.265015 0.272515 0.280015 0.287514 0.295014 0.302514 0.310014 0.317513 0.325013
0.332513 0.340013 0.347512 0.355012 0.362512 0.370012 0.377512 0.385011 0.392511 0.400011
0.407511 0.415011 0.42251 0.43001 0.43751 0.44501 0.45251 0.460009 0.467509 0.475009
0.482509 0.490009 0.497508 0.505008 0.512508 0.520008 0.527507 0.535005 0.542503 0.55
0 0.005026 0.0100533 0.0150746 0.0200878 0.0250929 0.028832 0.0325652 0.0362917 0.0400114
0.0437248 0.0474311 0.0511304 0.0548278 0.0585252 0.0622244 0.0696352 0.0770712 0.084522 0.0919875
0.0994676 0.106797 0.114126 0.121458 0.12879 0.134661 0.135119 0.135577 0.136034 0.136492
0.13695 0.14445 0.15195 0.159449 0.166948 0.174446 0.181945 0.189442 0.196939 0.204436
0.211933 0.21943 0.226927 0.234424 0.241921 0.249418 0.256916 0.264413 0.271911 0.279408
0.286906 0.294405 0.301903 0.3094 0.316899 0.324397 0.331896 0.339394 0.346892 0.354391
0.36189 0.369389 0.376888 0.384387 0.391886 0.399385 0.406885 0.414384 0.421884 0.429383
0.436883 0.444384 0.451883 0.459383 0.466883 0.474384 0.481885 0.489385 0.496885 0.504386
0.511887 0.519388 0.526889 0.53439 0.541891 0.549392 0 0.00502799 0.0100578 0.0150818
0.0200993 0.0251104 0.0288575 0.0325975 0.0363282 0.0400541 0.0437703 0.0474751 0.0511741 0.0548719
0.0585689 0.0622654 0.0696638 0.0770893 0.0845328 0.0919983 0.0994855 0.106988 0.114493 0.122
0.129508 0.137018 0.144533 0.152041 0.15955 0.167057 0.174564 0.182076 0.189582 0.197087
0.204593 0.212098 0.219609 0.227114 0.234619 0.242124 0.249629 0.257141 0.264646 0.272152
0.279657 0.287163 0.294675 0.302181 0.309687 0.317193 0.324699 0.332212 0.339718 0.347224
0.35473 0.362236 0.36975 0.377256 0.384763 0.392269 0.399776 0.40729 0.414797 0.422304
0.429811 0.437318 0.444832 0.452339 0.459847 0.467354 0.474861 0.482377 0.489884 0.497392
0.504899 0.512407 0.519923 0.527431 0.534939 0.542447 0.549955 0 0.00503009 0.0100662
0.0150995 0.0201269 0.0251494 0.0289152 0.0326691 0.036411 0.0401426 0.0438575 0.0475525 0.0512421
0.0549306 0.0586183 0.0623096 0.0696967 0.0771201 0.084574 0.0920444 0.0995359 0.107048 0.114561
0.122079 0.129601 0.137124 0.144654 0.152176 0.159699 0.167222 0.174744 0.182272 0.189792
0.197313 0.204833 0.212353 0.21988 0.2274 0.23492 0.24244 0.24996 0.257488 0.265008
0.272528 0.280049 0.28757 0.295098 0.302618 0.310139 0.31766 0.325181 0.33271 0.340231
0.347752 0.355274 0.362795 0.370324 0.377845 0.385367 0.392889 0.400411 0.40794 0.415462
0.422984 0.430506 0.438028 0.445558 0.453081 0.460603 0.468126 0.475648 0.483179 0.490701
0.498224 0.505747 0.51327 0.520801 0.528324 0.535848 0.543371 0.550894 0 0.00268254
0.00536677 0.00805268 0.010738 0.0139159 0.0161715 0.0184266 0.020681 0.0229346 0.0251891 0.0267208
0.0282504 0.0297771 0.0313008 0.033709 0.0357355 0.0377563 0.0397716 0.0417815 0.0437799 0.0474587
0.0511389 0.0548204 0.0585084 0.0622091 0.062226 0.0622429 0.0622598 0.0622767 0.0622936 0.0659593
0.069635 0.0733205 0.0770164 0.0807221 0.0813129 0.0819037 0.0824946 0.0830855 0.083662 0.0868203
0.0899812 0.0931446 0.0963107 0.0994788 0.106999 0.114521 0.122047 0.129579 0.137115 0.144658
0.152195 0.159731 0.167268 0.174804 0.182346 0.189882 0.197417 0.204951 0.212486 0.220027
0.227562 0.235096 0.242631 0.250166 0.257708 0.265242 0.272777 0.280313 0.287848 0.29539
0.302925 0.310461 0.317997 0.325532 0.333075 0.340611 0.348147 0.355683 0.363219 0.370762
0.378298 0.385835 0.393371 0.400907 0.408451 0.415988 0.423525 0.431061 0.438598 0.446143
0.45368 0.461217 0.468754 0.476291 0.483836 0.491373 0.498911 0.506449 0.513986 0.521532
0.529069 0.536607 0.544145 0.551683 0 0.00126443 0.00252925 0.00379475 0.00506104 0.00632816
0.0101157 0.0139115 0.017719 0.021533 0.0253295 0.0269134 0.028487 0.0300539 0.0316135 0.0330097
0.0333341 0.0336581 0.0339818 0.0343054 0.0346288 0.036457 0.0382781 0.0400903 0.0418973 0.0436948
0.0454953 0.0473005 0.0491177 0.0509398 0.0527661 0.0529069 0.0530478 0.0531887 0.0533296 0.0534769
0.055166 0.0568579 0.0585526 0.0602503 0.0619505 0.0656464 0.069359 0.0730895 0.0768308 0.0805811
0.0843443 0.0881068 0.0918699 0.0956357 0.0994039 0.106939 0.114476 0.122018 0.129563 0.137113
0.144678 0.152231 0.159783 0.167335 0.174888 0.182448 0.189999 0.19755 0.205101 0.212652
0.22021 0.22776 0.235311 0.242862 0.250412 0.257971 0.265522 0.273073 0.280624 0.288175
0.295734 0.303285 0.310836 0.318388 0.325939 0.333499 0.34105 0.348602 0.356154 0.363706
0.371266 0.378817 0.38637 0.393922 0.401474 0.409034 0.416586 0.424139 0.431691 0.439244
0.446804 0.454357 0.46191 0.469463 0.477015 0.484576 0.492129 0.499682 0.507236 0.514789
0.52235 0.529903 0.537456 0.54501 0.552563 0 0.00126544 0.00253139 0.00379785 0.00506483
0.00633235 0.00822672 0.0101235 0.0120227 0.0139247 0.0158289 0.0177463 0.0196686 0.0215919 0.0235183
0.0254571 0.0264282 0.0273967 0.0283608 0.0293204 0.0302798 0.0307561 0.0312308 0.0317034 0.0321739
0.0326892 0.0331437 0.0335962 0.0340468 0.0344953 0.0349414 0.0358517 0.0367589 0.0376619 0.0385607
0.0394506 0.0403397 0.0412274 0.0421143 0.043001 0.0438882 0.0452249 0.0465683 0.0479186 0.0492608
0.0528824 0.0547111 0.0565536 0.0584074 0.0602678 0.062129 0.064 0.0658722 0.0677465 0.0696234
0.0715044 0.0733927 0.0752755 0.0771545 0.0790353 0.0809212 0.0840537 0.0871904 0.0903288 0.0934689
0.0961275 0.0968841 0.0976409 0.0983978 0.0991548 0.0999119 0.107504 0.115098 0.122697 0.130299
0.137906 0.145538 0.153144 0.160746 0.168348 0.175949 0.18357 0.191169 0.198766 0.206364
0.213961 0.221578 0.229174 0.23677 0.244366 0.251962 0.259577 0.267173 0.274768 0.282363
0.289959 0.297572 0.305168 0.312763 0.320358 0.327953 0.335565 0.34316 0.350755 0.35835
0.365945 0.373555 0.38115 0.388744 0.396339 0.403934 0.411543 0.419137 0.426731 0.434325
0.44192 0.449528 0.457122 0.464716 0.472309 0.479904 0.48751 0.495104 0.502697 0.510291
0.517884 0.52549 0.533083 0.540676 0.548269 0.555862 0 0.00126278 0.00252623 0.00379071
0.00505637 0.00632321 0.00823321 0.0101452 0.012061 0.0139801 0.0159045 0.0178217 0.019752 0.021695
0.0236508 0.025629 0.026629 0.0276297 0.0286308 0.0296312 0.0306434 0.0308909 0.0311385 0.0313857
0.031631 0.031821 0.0325715 0.0333095 0.0340344 0.0347456 0.0354486 0.0358954 0.0363406 0.0367843
0.0372265 0.0376627 0.0380999 0.0385344 0.0389665 0.0393978 0.0398268 0.0402587 0.0406906 0.0411226
0.0415552 0.0419904 0.0424257 0.0428604 0.0432956 0.0437316 0.0441698 0.0450464 0.0459323 0.0468285
0.0477357 0.0486598 0.0493885 0.0501165 0.0508468 0.0515801 0.0524784 0.0526511 0.052824 0.0529969
0.05317 0.0533432 0.0542959 0.0552471 0.0562005 0.0571571 0.0581158 0.0590834 0.0600502 0.0610181
0.0619889 0.0629614 0.0649272 0.0668879 0.0688435 0.0708034 0.0727472 0.0746779 0.0766226 0.0785816
0.0805451 0.0825141 0.0864738 0.0904251 0.0943508 0.0982605 0.102174 0.110001 0.117795 0.125519
0.133184 0.140853 0.148551 0.156227 0.163899 0.171566 0.179232 0.186913 0.194577 0.202239
0.209899 0.217559 0.225233 0.232892 0.24055 0.248206 0.255862 0.263532 0.271188 0.278844
0.286498 0.294152 0.301818 0.309472 0.317125 0.324777 0.332429 0.340091 0.347743 0.355394
0.363044 0.370693 0.378353 0.386003 0.393651 0.401299 0.408947 0.416604 0.424251 0.431898
0.439544 0.44719 0.454843 0.462489 0.470134 0.477778 0.485422 0.493073 0.500717 0.50836
0.516002 0.523644 0.531292 0.538933 0.546575 0.554216 0.561856 0 0.0012644 0.00252945
0.00379514 0.00506149 0.00632908 0.0082461 0.0101655 0.0120883 0.0140173 0.0159584 0.0169285 0.0179014
0.0188775 0.0198568 0.0208393 0.0218269 0.0228226 0.0238273 0.024841 0.0258651 0.0263827 0.0269021
0.0274251 0.0279517 0.0284848 0.0287758 0.0290683 0.0293631 0.0296606 0.0297583 0.0300578 0.0303587
0.0306604 0.0309619 0.0312717 0.0313683 0.0314648 0.0315616 0.0316586 0.0317294 0.031765 0.0318006
0.0318363 0.0318719 0.0319058 0.0320687 0.0322315 0.0323941 0.0325566 0.0327204 0.0328997 0.0330787
0.0332571 0.0334326 0.033562 0.0336671 0.0337717 0.0338757 0.0339788 0.0340833 0.0341935 0.0343022
0.0344095 0.0345158 0.0346027 0.0346576 0.0347123 0.0347666 0.0348206 0.0348734 0.0349708 0.0350678
0.0351643 0.0352604 0.0353543 0.0354765 0.0355972 0.0357165 0.0358346 0.0360267 0.0361271 0.0362271
0.0363268 0.0364263 0.036516 0.0366031 0.0366904 0.0367777 0.036865 0.0370262 0.037147 0.0372675
0.0373878 0.037508 0.0376266 0.0378452 0.0380623 0.0382795 0.0384972 0.0387114 0.0389294 0.0391468
0.0393645 0.0395826 0.0398006 0.0400216 0.0402409 0.0404604 0.0406801 0.0409007 0.041121 0.041341
0.0415614 0.0417826 0.0420061 0.042231 0.042454 0.0426772 0.0429011 0.0431259 0.0434526 0.0437808
0.0441144 0.0444538 0.0446158 0.0447849 0.0449544 0.0451243 0.0452946 0.0454661 0.0459553 0.0464364
0.0469177 0.047394 0.0478924 0.0484117 0.0489204 0.0494301 0.0499446 0.0504666 0.0505241 0.0505818
0.0506395 0.0506973 0.0507542 0.0517768 0.0528407 0.0539499 0.0550215 0.0561057 0.0573105 0.0584943
0.0596799 0.0608712 0.0620618 0.0624317 0.0628009 0.0631699 0.0635392 0.0639513 0.0647896 0.0656192
0.0664463 0.0672759 0.068104 0.0682108 0.0683174 0.0684238 0.0685299 0.0686349 0.0697213 0.0707988
0.0718745 0.0729481 0.0740161 0.0751683 0.0763416 0.0775185 0.0786968 0.0798776 0.0812243 0.082572
0.0839255 0.085284 0.0869454 0.0878364 0.088723 0.0896052 0.0904829 0.0913557 0.0958644 0.100349
0.104759 0.109079 0.113269 0.121447 0.129563 0.137606 0.145578 0.153464 0.161225 0.168986
0.176744 0.1845 0.192252 0.200001 0.207751 0.215498 0.223243 0.230986 0.236935 0.242884
0.248832 0.254779 0.260798 0.262574 0.26435 0.266125 0.267901 0.269677 0.277411 0.285147
0.292882 0.300618 0.308354 0.31608 0.323816 0.331551 0.339287 0.347022 0.354742 0.362477
0.370212 0.377947 0.385682 0.393395 0.40113 0.408864 0.416599 0.424334 0.43204 0.439774
0.447508 0.455241 0.462975 0.470676 0.478409 0.486142 0.493875 0.501608 0.509303 0.517035
0.524767 0.532498 0.540229 0.547919 0.555648 0.563378 0.571108 0.578838 0 0.0012541
0.00250913 0.00376548 0.00502327 0.00628263 0.0082139 0.0101479 0.0120846 0.0140284 0.0159865 0.0169592
0.0179357 0.0189163 0.019901 0.0208897 0.0218842 0.0228894 0.0239062 0.0249349 0.0259765 0.0265051
0.0270369 0.0275754 0.0281208 0.028675 0.0292405 0.0298137 0.0303999 0.0310001 0.0316268 0.0319457
0.0322645 0.0325839 0.0329044 0.0332394 0.0333112 0.033383 0.0334548 0.0335266 0.0335851 0.033661
0.0337354 0.033809 0.033882 0.0339436 0.0341148 0.0342828 0.0344475 0.0346088 0.0347754 0.0349181
0.035058 0.0351953 0.0353293 0.0354486 0.0355688 0.0356885 0.0358076 0.0359251 0.0360369 0.0361542
0.0362684 0.0363796 0.0364903 0.0366365 0.0367435 0.0368503 0.036957 0.0370634 0.037161 0.0373582
0.0375554 0.037756 0.0379598 0.0383749 0.0386108 0.0388472 0.0390814 0.0393135 0.0395407 0.0400048
0.0404624 0.0409163 0.0413667 0.041812 0.0422692 0.042711 0.0431561 0.0436042 0.0440553 0.0445284
0.0449954 0.0454735 0.0459561 0.0464466 0.0473021 0.0481778 0.0490674 0.0499627 0.0517752 0.0528966
0.0540201 0.0551672 0.0563344 0.0575346 0.0587916 0.0600215 0.0612346 0.0624567 0.0636843 0.0645688
0.0654409 0.0663121 0.0671779 0.0683258 0.0686347 0.0689438 0.0692531 0.0695629 0.0698731 0.0706023
0.0713325 0.0720628 0.0727941 0.0736808 0.074159 0.0746369 0.0751146 0.0755911 0.0760654 0.0773026
0.0785439 0.0797926 0.0810423 0.0822914 0.0847726 0.0872575 0.0897138 0.0921291 0.0945195 0.0993459
0.104125 0.108767 0.113275 0.117631 0.121155 0.124667 0.128166 0.131651 0.135931 0.140573
0.145158 0.149687 0.154161 0.15858 0.16634 0.17411 0.181879 0.189646 0.197412 0.205157
0.212922 0.220686 0.22845 0.236213 0.243947 0.251709 0.259471 0.267233 0.274995 0.28272
0.290481 0.298242 0.306003 0.313764 0.321483 0.329242 0.337002 0.344763 0.352523 0.360235
0.367993 0.375752 0.383511 0.391271 0.398976 0.406734 0.414491 0.422249 0.430007 0.437707
0.445463 0.453219 0.460975 0.468732 0.476426 0.48418 0.491935 0.49969 0.507445 0.515134
0.522887 0.53064 0.538392 0.546145 0.553829 0.561578 0.569328 0.577078 0.584828 0
0.00125901 0.00251871 0.00377908 0.00504087 0.0063043 0.00823295 0.0101645 0.012099 0.0140409 0.015997
0.0169699 0.0179468 0.0189278 0.0199131 0.0209026 0.021897 0.0229021 0.0239188 0.0249472 0.0259887
0.0265177 0.0270495 0.0275871 0.0281314 0.028685 0.029248 0.0298186 0.0303987 0.0309914 0.0316136
0.0319297 0.0322465 0.0325636 0.0328808 0.0332105 0.0334486 0.0336854 0.0339202 0.0341489 0.0342456
0.0343491 0.0344515 0.0345528 0.0346531 0.0347559 0.0349574 0.0351519 0.0353398 0.0355217 0.0356764
0.0357547 0.0358326 0.0359098 0.0359862 0.0360632 0.0360649 0.0360666 0.0360683 0.03607 0.0360717
0.0362157 0.0363584 0.0364997 0.0366396 0.0368445 0.0369203 0.036996 0.0370716 0.0371471 0.0372188
0.0376769 0.0381401 0.0386167 0.0391011 0.0395155 0.0399773 0.0404284 0.0408782 0.0413304 0.0417904
0.0422665 0.0427328 0.043196 0.0436615 0.0441357 0.0446274 0.0451098 0.0455876 0.0460707 0.0465674
0.0476018 0.0486582 0.0497268 0.050814 0.0515508 0.0516281 0.0517053 0.0517824 0.0518595 0.0519366
0.0530649 0.0542173 0.0553982 0.0566023 0.0578264 0.0590974 0.0603467 0.0615778 0.0628246 0.0640643
0.0646878 0.0653006 0.0659108 0.0665193 0.067131 0.0677563 0.068372 0.0689799 0.06959 0.0702042
0.0714539 0.0727113 0.0739658 0.0752152 0.0764545 0.0771836 0.0779079 0.078633 0.079359 0.080152
0.0802996 0.0804472 0.0805949 0.0807426 0.0808898 0.0812534 0.0816175 0.0819821 0.0823471 0.0827119
0.0852151 0.087703 0.0901759 0.0925931 0.0949826 0.0997352 0.104439 0.109035 0.113518 0.117892
0.124561 0.131145 0.137619 0.143985 0.15919 0.161726 0.164262 0.166797 0.169332 0.1719
0.177109 0.182317 0.187524 0.192731 0.197937 0.205677 0.213422 0.221167 0.228911 0.236655
0.244384 0.252127 0.25987 0.267613 0.275355 0.283076 0.290818 0.29856 0.306302 0.314045
0.321758 0.3295 0.337241 0.344983 0.352725 0.360432 0.368173 0.375914 0.383654 0.391395
0.399097 0.406836 0.414576 0.422316 0.430056 0.437752 0.44549 0.453229 0.460968 0.468707
0.476397 0.484134 0.491872 0.499609 0.507347 0.515032 0.522768 0.530504 0.53824 0.545976
0.553656 0.561389 0.569122 0.576856 0.58459 0 0.0012799 0.00256045 0.00384224 0.00512552
0.00641028 0.00831668 0.0102256 0.0121372 0.0140554 0.0159856 0.0169576 0.0179327 0.0189111 0.019893
0.0208784 0.0218725 0.0228757 0.0238887 0.0249116 0.0259467 0.02639 0.0268349 0.0272832 0.027735
0.0278583 0.0280067 0.0281553 0.0283041 0.0284529 0.028602 0.0291454 0.029693 0.0302478 0.0308115
0.0313961 0.0314713 0.0315464 0.0316215 0.0316967 0.0317619 0.0319791 0.0321961 0.0324131 0.0326298
0.0328501 0.0329305 0.0330109 0.0330911 0.0331712 0.0332405 0.0334509 0.0336605 0.033869 0.0340743
0.0342859 0.0343482 0.03441 0.0344714 0.0345324 0.0345854 0.0345913 0.0345971 0.034603 0.0346088
0.0346146 0.0348294 0.0350397 0.0352456 0.035444 0.0356339 0.0356561 0.0356782 0.0357002 0.0357222
0.0357448 0.0358459 0.0359462 0.0360454 0.0361459 0.0362896 0.0363835 0.0364767 0.0365694 0.0366611
0.0367504 0.0368553 0.0369595 0.0370631 0.037167 0.0373175 0.0374152 0.0375127 0.0376103 0.0377086
0.0378047 0.0380165 0.0382265 0.0384359 0.0386448 0.0388568 0.0390768 0.0392922 0.0395033 0.0397145
0.0399284 0.0401445 0.0403589 0.0405723 0.0407863 0.041003 0.0412242 0.0414419 0.0416581 0.0418747
0.0420923 0.0423112 0.0425285 0.0427457 0.0429632 0.0431821 0.0436274 0.0440729 0.0445217 0.0449739
0.0454344 0.0459132 0.0463803 0.0468393 0.0473012 0.0477768 0.04826 0.0487413 0.0492226 0.0497078
0.0502009 0.0512181 0.0522411 0.0532769 0.054367 0.055473 0.055816 0.0561594 0.0565038 0.0568495
0.0572134 0.0580266 0.0588392 0.0596514 0.0604671 0.0612913 0.0624912 0.0636678 0.0648509 0.0660483
0.0672397 0.0684653 0.0696667 0.0708479 0.0720216 0.0731875 0.0736711 0.0741539 0.0746371 0.0751209
0.0755929 0.0757895 0.0759862 0.0761829 0.0763797 0.0765796 0.0770735 0.0775679 0.0780627 0.0785582
0.0790541 0.0813985 0.0837448 0.0860891 0.0884038 0.0906949 0.0952111 0.0997799 0.104247 0.108572
0.112791 0.121105 0.129389 0.137609 0.145655 0.153532 0.161274 0.169016 0.176754 0.184489
0.192221 0.199949 0.207677 0.215403 0.223128 0.23085 0.237166 0.243482 0.249797 0.256111
0.262416 0.263821 0.265226 0.266631 0.268036 0.269441 0.277155 0.284871 0.292586 0.300302
0.308018 0.315725 0.323441 0.331156 0.338872 0.346588 0.354289 0.362004 0.369719 0.377435
0.38515 0.392845 0.40056 0.408275 0.41599 0.423705 0.431395 0.439109 0.446823 0.454537
0.462251 0.469936 0.477649 0.485362 0.493076 0.500789 0.508469 0.516182 0.523894 0.531606
0.539318 0.546993 0.554703 0.562413 0.570124 0.577835 0 0.00127751 0.00255574 0.00383507
0.00511569 0.00639759 0.00829913 0.0102026 0.0121089 0.0140201 0.0159394 0.0169035 0.0178695 0.0188375
0.0198077 0.0207801 0.0217538 0.0227326 0.0237166 0.0247052 0.0256975 0.0266882 0.0276853 0.0286906
0.0296911 0.0306995 0.0307754 0.0308512 0.0309271 0.0310027 0.0310727 0.0319942 0.0328962 0.0337778
0.0346382 0.0354961 0.035944 0.0363895 0.036833 0.0372754 0.0377124 0.0381509 0.0385869 0.039022
0.0394565 0.0398851 0.0403181 0.0407513 0.0411848 0.0416186 0.042053 0.0424892 0.0429243 0.0433602
0.0437971 0.0442359 0.045114 0.0460006 0.0468938 0.0477945 0.0487203 0.0496674 0.0506069 0.05154
0.05248 0.0534293 0.0541461 0.0548681 0.0555923 0.0563181 0.0574238 0.0575957 0.0577677 0.0579398
0.058112 0.0582844 0.0592678 0.0602507 0.0612339 0.0622169 0.063199 0.0651985 0.0671848 0.0691608
0.0711463 0.0731291 0.0750875 0.0770717 0.0790706 0.0810735 0.0830789 0.0870935 0.0911242 0.0951221
0.0990744 0.103022 0.105813 0.108608 0.111413 0.11421 0.117496 0.122533 0.127542 0.132522
0.137475 0.142399 0.15011 0.157823 0.165533 0.173241 0.180946 0.18864 0.196341 0.20404
0.211738 0.219434 0.227121 0.234815 0.242507 0.250198 0.257888 0.265571 0.273259 0.280945
0.288631 0.296316 0.303996 0.311679 0.319361 0.327042 0.334723 0.342399 0.350077 0.357755
0.365432 0.373108 0.380781 0.388455 0.396129 0.403802 0.411475 0.419144 0.426815 0.434485
0.442155 0.449823 0.45749 0.465157 0.472824 0.48049 0.488155 0.495819 0.503483 0.511146
0.518809 0.526471 0.534131 0.541791 0.549451 0.557111 0.56477 0 0.00127408 0.00254877
0.00382392 0.0051003 0.0063779 0.00827377 0.0101718 0.0120721 0.0139754 0.0158828 0.0177921 0.0197066
0.0216259 0.02355 0.0254819 0.0264528 0.0274206 0.0283835 0.0293415 0.0299673 0.0309839 0.0319929
0.0329915 0.0339798 0.0349565 0.0358654 0.0367709 0.0376724 0.0385709 0.0394604 0.040351 0.0412401
0.042128 0.0430151 0.0439014 0.0456786 0.0474731 0.049282 0.0511007 0.0529357 0.0537905 0.0546466
0.0555047 0.0563649 0.0576955 0.0585956 0.0594976 0.0604014 0.0613071 0.0622142 0.0640896 0.0659678
0.0678488 0.0697324 0.071618 0.0735134 0.0754008 0.0772893 0.0791792 0.0810701 0.0848657 0.0886605
0.0924599 0.0962637 0.100082 0.107781 0.115484 0.123142 0.130761 0.138396 0.146046 0.153692
0.161337 0.168981 0.176623 0.184269 0.191912 0.199554 0.207194 0.214832 0.222474 0.230112
0.23775 0.245387 0.253022 0.260661 0.268297 0.275932 0.283566 0.291199 0.298835 0.306469
0.314101 0.321733 0.329364 0.336998 0.34463 0.35226 0.35989 0.367519 0.37515 0.382779
0.390408 0.398035 0.405662 0.413292 0.420919 0.428545 0.436171 0.443796 0.451423 0.459048
0.466673 0.474296 0.48192 0.489545 0.497168 0.504791 0.512412 0.520033 0.527656 0.535277
0.542897 0.550517 0.558137 0 0.0012714 0.00254319 0.00381551 0.00508841 0.00636193 0.0101413
0.0139322 0.0177222 0.0215089 0.0252994 0.0257927 0.0262847 0.0267759 0.0272662 0.0276978 0.0290849
0.0304668 0.0318435 0.0332152 0.0345842 0.0364253 0.038257 0.0400717 0.0418824 0.043688 0.0454993
0.0473079 0.0491179 0.0509366 0.0527667 0.0546029 0.0564406 0.0582811 0.0601244 0.0619703 0.0656723
0.0693882 0.0731199 0.0768666 0.080617 0.0843873 0.0881558 0.0919244 0.0956951 0.0994683 0.106998
0.114526 0.12206 0.129608 0.137171 0.14475 0.152325 0.159903 0.16748 0.175056 0.182638