# vtk DataFile Version 2.0
tracks
ASCII
DATASET POLYDATA
POINTS 2590 float
-1.001 -0.05 0.0011 -0.900789 -0.0500216 0.00109731 -0.800577 -0.0500431 0.00109463 -0.700366 -0.0500646
0.00109196 -0.600155 -0.050086 0.00108929 -0.499943 -0.0501074 0.00108663 -0.424945 -0.0501113 0.00107893
-0.349947 -0.0501523 0.0010688 -0.274949 -0.0501929 0.00105876 -0.19995 -0.0502332 0.00104882 -0.124952
-0.050273 0.00103897 -0.0499538 -0.0502825 0.0010392 0.0250446 -0.0502915 0.00104794 0.100043 -0.0503005
0.00105674 0.175041 -0.0503097 0.00106562 0.25004 -0.0503189 0.00107458 0.400037 -0.0503129 0.00109068
0.550035 -0.0503112 0.00110491 0.700032 -0.0503095 0.00111933 0.85003 -0.0503077 0.00113393 1.00003
-0.050306 0.00114872 1.15003 -0.0503167 0.00115592 1.30002 -0.0503225 0.0011604 1.45002 -0.0503283
0.0011649 1.60002 -0.0503341 0.00116942 1.75002 -0.05034 0.00117395 1.90002 -0.0503485 0.00117681
2.05002 -0.0503551 0.00117875 2.20001 -0.0503617 0.00118069 2.35001 -0.0503683 0.00118263 2.50001
-0.0503749 0.00118457 2.65001 -0.0503829 0.00118562 2.80001 -0.050391 0.00118631 2.95001 -0.0503992
0.001187 3.10001 -0.0504073 0.00118769 3.25001 -0.0504155 0.00118839 3.40001 -0.0504234 0.00118867
3.55001 -0.0504323 0.00118925 3.70001 -0.0504412 0.00118982 3.85001 -0.0504501 0.0011904 4.00001
-0.050459 0.00119098 4.15 -0.0504667 0.00119106 4.3 -0.0504764 0.00119173 4.45 -0.0504861
0.0011924 4.6 -0.0504958 0.00119307 4.75 -0.0505054 0.00119374 4.9 -0.0505131 0.00119374
5.05 -0.0505233 0.00119457 5.2 -0.0505334 0.00119541 5.35 -0.0505436 0.00119624 5.5
-0.0505537 0.00119707 5.65 -0.0505613 0.00119703 5.8 -0.0505718 0.00119802 5.95 -0.0505822
0.00119901 6.1 -0.0505927 0.0012 6.25 -0.0506032 0.001201 6.4 -0.0506107 0.00120092
6.55 -0.0506213 0.00120205 6.7 -0.050632 0.00120318 6.85 -0.0506427 0.00120431 7
-0.0506534 0.00120544 7.15 -0.0506608 0.00120535 7.3 -0.0506716 0.00120659 7.45 -0.0506825
0.00120782 7.6 -0.0506933 0.00120906 7.75 -0.0507042 0.0012103 7.9 -0.0507115 0.0012102
8.05 -0.0507224 0.00121152 8.2 -0.0507334 0.00121285 8.35 -0.0507443 0.00121418 8.5
-0.0507553 0.00121551 8.65 -0.0507625 0.0012154 8.8 -0.0507735 0.0012168 8.95 -0.0507846
0.00121821 9.1 -0.0507956 0.00121962 9.25 -0.0508066 0.00122103 9.4 -0.0508138 0.0012209
9.55 -0.0508711 0.00122302 9.7 -0.0509799 0.00122587 9.85 -0.0511401 0.00122945 10
-0.0513517 0.00123376 -1.001 -0.05 0.0537316 -0.900807 -0.0501063 0.0535766 -0.800614 -0.0502128
0.0533944 -0.700421 -0.0503429 0.0531785 -0.600229 -0.0505041 0.0529268 -0.500035 -0.0506963 0.0526395
-0.425004 -0.0509451 0.0524168 -0.349973 -0.0512833 0.0521269 -0.274943 -0.051669 0.051858 -0.199912
-0.0520884 0.0516313 -0.124879 -0.0524923 0.0514871 -0.0498864 -0.05276 0.0515236 0.0251064 -0.0529817
0.0516893 0.100099 -0.0531987 0.0519236 0.175092 -0.0534251 0.0522061 0.250087 -0.0536466 0.0525236
0.400077 -0.0540356 0.0531595 0.550067 -0.0544221 0.0536745 0.700057 -0.0547671 0.0541409 0.850047
-0.0550706 0.0545582 1.00003 -0.0553406 0.0549259 1.14677 -0.0557103 0.0552042 1.29351 -0.0560484
0.0554638 1.44024 -0.0563838 0.0556898 1.58698 -0.0567165 0.055882 1.70431 -0.0569805 0.0560088
1.71345 -0.0570018 0.0560173 1.72259 -0.0570233 0.0560258 1.73174 -0.0570448 0.0560341 1.74088
-0.0570664 0.0560424 1.75002 -0.0570882 0.0560506 1.90002 -0.0574466 0.0561838 2.05002 -0.0578007
0.0562999 2.20001 -0.058151 0.0563982 2.35001 -0.0584975 0.056479 2.50001 -0.0588401 0.0565421
2.65001 -0.0591878 0.0565941 2.80001 -0.0595353 0.0566393 2.95001 -0.0598819 0.0566769 3.10001
-0.0602277 0.0567068 3.25001 -0.0605726 0.056729 3.40001 -0.0609183 0.0567462 3.55001 -0.0612656
0.0567626 3.70001 -0.0616113 0.056777 3.85001 -0.0619555 0.0567894 4.00001 -0.0622982 0.0567997
4.15 -0.0626386 0.0568076 4.3 -0.0629828 0.0568165 4.45 -0.0633256 0.0568246 4.6
-0.0636669 0.056832 4.75 -0.0640067 0.0568387 4.9 -0.0643415 0.056843 5.05 -0.0646818
0.0568493 5.2 -0.0650207 0.0568552 5.35 -0.0653583 0.0568608 5.5 -0.0656945 0.0568659
5.65 -0.0660237 0.0568684 5.8 -0.0663595 0.0568735 5.95 -0.0666941 0.0568784 6.1
-0.0670275 0.056883 6.25 -0.0673595 0.0568874 6.4 -0.0676835 0.0568888 6.55 -0.0680148
0.0568932 6.7 -0.0683449 0.0568975 6.85 -0.0686737 0.0569016 7 -0.0690014 0.0569056
7.15 -0.0693202 0.0569062 7.3 -0.0696467 0.0569103 7.45 -0.0699722 0.0569142 7.6
-0.0702964 0.0569179 7.75 -0.0706194 0.0569216 7.9 -0.0709331 0.0569218 8.05 -0.0712549
0.0569255 8.2 -0.0715756 0.0569293 8.35 -0.0718951 0.056933 8.5 -0.0722134 0.0569367
8.65 -0.072522 0.0569368 8.8 -0.072839 0.0569406 8.95 -0.0731549 0.0569442 9.1
-0.0734695 0.0569478 9.25 -0.073783 0.0569513 9.4 -0.0740864 0.0569509 9.55 -0.0743989
0.0569544 9.7 -0.0747109 0.0569579 9.85 -0.0750224 0.0569614 10 -0.0753333 0.0569648
-1.001 -0.05 0.106363 -0.900818 -0.0500782 0.106138 -0.800636 -0.0501542 0.105866 -0.700455
-0.0502569 0.105547 -0.600274 -0.0504299 0.105005 -0.50009 -0.0506728 0.104243 -0.424996 -0.0509605
0.103658 -0.349901 -0.0513097 0.103052 -0.274807 -0.0516631 0.102514 -0.199711 -0.0519622 0.102085
-0.124607 -0.0523056 0.101982 -0.0496047 -0.0525549 0.102094 0.0253974 -0.0527493 0.102323 0.100399
-0.052931 0.102635 0.175401 -0.053133 0.103032 0.250411 -0.0533552 0.103514 0.400346 -0.0537646
0.104514 0.550283 -0.0541723 0.105386 0.700219 -0.054541 0.10617 0.850157 -0.0548787 0.106788
1.00009 -0.0551852 0.107239 1.15007 -0.055627 0.107504 1.30006 -0.0559249 0.107801 1.45005
-0.0561717 0.108077 1.60003 -0.0564124 0.108321 1.75002 -0.0566473 0.108532 1.90002 -0.0569556
0.108677 2.05002 -0.057201 0.108832 2.20001 -0.0574405 0.108972 2.35001 -0.0576776 0.109094
2.50001 -0.0579122 0.109199 2.65001 -0.0582027 0.109268 2.80001 -0.0584517 0.109336 2.95001
-0.0586994 0.109396 3.10001 -0.0589465 0.109449 3.25001 -0.0591927 0.109494 3.40001 -0.0594816
0.109529 3.55001 -0.0597344 0.109562 3.70001 -0.0599853 0.109594 3.85001 -0.0602347 0.109624
4 -0.0604824 0.109651 4.15 -0.0607651 0.109677 4.3 -0.0610178 0.109699 4.45
-0.0612687 0.109719 4.6 -0.061518 0.109739 4.75 -0.0617657 0.109758 4.9 -0.0620419
0.109781 5.05 -0.0622927 0.109796 5.2 -0.0625417 0.109811 5.35 -0.0627894 0.109826
5.5 -0.0630356 0.10984 5.65 -0.0633053 0.109861 5.8 -0.0635535 0.109872 5.95
-0.0638001 0.109883 6.1 -0.0640455 0.109893 6.25 -0.0642896 0.109903 6.4 -0.0645533
0.109923 6.55 -0.0647985 0.109931 6.7 -0.0650424 0.109939 6.85 -0.065285 0.109946
7 -0.0655264 0.109954 7.15 -0.0657843 0.109972 7.3 -0.0660264 0.109978 7.45
-0.0662671 0.109983 7.6 -0.0665067 0.109989 7.75 -0.0667451 0.109994 7.9 -0.0669972
0.110011 8.05 -0.067236 0.110015 8.2 -0.0674734 0.110019 8.35 -0.0677098 0.110023
8.5 -0.067945 0.110026 8.65 -0.0681916 0.110044 8.8 -0.0684268 0.110046 8.95
-0.0686607 0.110049 9.1 -0.0688934 0.110051 9.25 -0.0691249 0.110053 9.4 -0.0693659
0.11007 9.55 -0.0695977 0.110071 9.7 -0.069829 0.110072 9.85 -0.0700597 0.110073
10 -0.07029 0.110074 -1.001 -0.05 0.158995 -0.900796 -0.0500887 0.15877 -0.800593
-0.0501933 0.158425 -0.700392 -0.0503552 0.157688 -0.600196 -0.0505871 0.156477 -0.499992 -0.0508808
0.154637 -0.42472 -0.0514886 0.153033 -0.349437 -0.0519569 0.152112 -0.274149 -0.0523543 0.151549
-0.19886 -0.05275 0.151255 -0.123699 -0.053068 0.151307 -0.0487805 -0.0531917 0.151468 0.026137
-0.0532711 0.151948 0.101053 -0.053412 0.152653 0.175967 -0.0535798 0.153452 0.250944 -0.0537349
0.15428 0.400783 -0.0539487 0.155702 0.550624 -0.0544571 0.15688 0.700468 -0.0549306 0.157634
0.850313 -0.0553297 0.158233 1.00014 -0.0556975 0.158664 1.15012 -0.0562014 0.15891 1.30009
-0.0565608 0.159188 1.45007 -0.0568267 0.159457 1.60005 -0.0570155 0.159712 1.75002 -0.0571984
0.159934 1.90002 -0.0574558 0.160089 2.05002 -0.0576498 0.160255 2.20002 -0.0578317 0.160407
2.35001 -0.0580048 0.160544 2.50001 -0.0581756 0.160664 2.65001 -0.0584028 0.160748 2.80001
-0.0585882 0.16083 2.95001 -0.0587714 0.160906 3.10001 -0.0589529 0.160974 3.25001 -0.0591339
0.161035 3.40001 -0.0593574 0.161085 3.55001 -0.059545 0.161134 3.70001 -0.0597298 0.161182
3.85001 -0.0599124 0.161228 4 -0.0600934 0.161272 4.15 -0.0603092 0.161315 4.3
-0.0604953 0.161353 4.45 -0.0606788 0.16139 4.6 -0.0608602 0.161427 4.75 -0.06104
0.161464 4.9 -0.0612479 0.161503 5.05 -0.0614308 0.161536 5.2 -0.0616114 0.161568
5.35 -0.0617901 0.161599 5.5 -0.0619674 0.161631 5.65 -0.0621678 0.161669 5.8
-0.0623471 0.161697 5.95 -0.0625244 0.161725 6.1 -0.0627 0.161753 6.25 -0.0628744
0.16178 6.4 -0.0630679 0.161817 6.55 -0.0632434 0.161842 6.7 -0.0634172 0.161867
6.85 -0.0635893 0.161892 7 -0.0637603 0.161916 7.15 -0.0639473 0.161952 7.3
-0.0641189 0.161975 7.45 -0.064289 0.161997 7.6 -0.0644575 0.16202 7.75 -0.064625
0.162042 7.9 -0.0648056 0.162076 8.05 -0.0649734 0.162097 8.2 -0.0651396 0.162118
8.35 -0.0653045 0.162139 8.5 -0.0654683 0.162159 8.65 -0.0656431 0.162193 8.8
-0.0658068 0.162213 8.95 -0.065969 0.162233 9.1 -0.0661298 0.162252 9.25 -0.0662895
0.162271 9.4 -0.0664581 0.162303 9.55 -0.066618 0.162321 9.7 -0.066777 0.162339
9.85 -0.0669353 0.162356 10 -0.0670932 0.162373 -1.001 -0.05 0.211626 -0.947632
-0.0500807 0.211469 -0.894265 -0.0501659 0.211279 -0.840898 -0.0502558 0.211055 -0.787531 -0.0503903
0.210764 -0.724314 -0.0506344 0.210286 -0.679437 -0.0509124 0.209635 -0.634564 -0.0512477 0.208756
-0.589694 -0.0515869 0.20774 -0.544828 -0.0519311 0.206586 -0.499928 -0.0522817 0.205293 -0.469453
-0.0525759 0.20424 -0.438979 -0.0528802 0.203123 -0.408501 -0.053169 0.202134 -0.378019 -0.0534435
0.201266 -0.329886 -0.0538618 0.200029 -0.288868 -0.0542024 0.19912 -0.247847 -0.0545428 0.198426
-0.206822 -0.0548874 0.198046 -0.165794 -0.0551967 0.197954 -0.124884 -0.0554313 0.198126 -0.0496123
-0.0557387 0.198835 0.0256573 -0.0558773 0.199783 0.100922 -0.0559879 0.201063 0.176185 -0.0561319
0.202423 0.251487 -0.0562692 0.203577 0.252048 -0.0562701 0.203585 0.252609 -0.0562709 0.203592
0.25317 -0.0562718 0.203599 0.253731 -0.0562727 0.203607 0.254297 -0.0562735 0.203614 0.328492
-0.0563879 0.204583 0.402688 -0.0565042 0.205427 0.476886 -0.0566225 0.206145 0.551084 -0.0567695
[...]
POINT_DATA 2590
FIELD attributes 4
age 1 2590 float
0 0.00501121 0.0100224 0.0150336 0.0200449 0.0250561 0.0288056 0.0325533 0.036301 0.0400488 0.0437965
0.0475449 0.0512906 0.0550362 0.0587817 0.0625272 0.070024 0.0775229 0.0850219 0.0925208 0.10002
0.10752 0.115019 0.122519 0.130019 0.137519 0.145019 0.152519 0.160019 0.167518 0.175018
0.182518 0.190018 0.197517 0.205017 0.212517 0.220017 0.227516 0.235016 0.242516 0.250015
0.257515 0.265015 0.272515 0.280014 0.287514 0.295014 0.302514 0.310014 0.317513 0.325013
0.332513 0.340013 0.347512 0.355012 0.362512 0.370012 0.377512 0.385011 0.392511 0.400011
0.407511 0.415011 0.42251 0.43001 0.43751 0.44501 0.452509 0.460009 0.467509 0.475009
0.482509 0.490009 0.497508 0.505008 0.512508 0.520008 0.527507 0.535005 0.542503 0.55
0 0.00502605 0.0100534 0.0150748 0.020088 0.0250931 0.0288322 0.0325654 0.0362919 0.0400115
0.0437249 0.0474311 0.0511303 0.0548277 0.0585251 0.0622241 0.0696348 0.0770707 0.0845215 0.091987
0.0994671 0.106798 0.11413 0.121464 0.128798 0.134664 0.135121 0.135578 0.136035 0.136492
0.136949 0.14445 0.15195 0.159449 0.166948 0.174446 0.181945 0.189442 0.196939 0.204436
0.211933 0.219431 0.226927 0.234424 0.241921 0.249419 0.256917 0.264414 0.271911 0.279409
0.286907 0.294405 0.301903 0.309401 0.316899 0.324398 0.331897 0.339395 0.346893 0.354392
0.361891 0.36939 0.376889 0.384388 0.391887 0.399386 0.406886 0.414386 0.421885 0.429385
0.436885 0.444385 0.451885 0.459385 0.466885 0.474385 0.481887 0.489387 0.496887 0.504388
0.511889 0.519391 0.526892 0.534393 0.541893 0.549394 0 0.00502804 0.0100579 0.015082
0.0200995 0.0251106 0.0288577 0.0325977 0.0363285 0.0400544 0.0437705 0.0474752 0.0511741 0.0548719
0.0585688 0.0622652 0.0696635 0.0770888 0.0845322 0.0919978 0.0994851 0.106988 0.114492 0.122
0.129508 0.137018 0.144533 0.152042 0.15955 0.167058 0.174565 0.182078 0.189583 0.197089
0.204594 0.212099 0.219611 0.227116 0.234621 0.242126 0.249631 0.257143 0.264649 0.272154
0.27966 0.287165 0.294678 0.302184 0.30969 0.317196 0.324702 0.332215 0.339721 0.347228
0.354734 0.36224 0.369754 0.37726 0.384767 0.392274 0.39978 0.407295 0.414802 0.422309
0.429816 0.437323 0.444837 0.452345 0.459852 0.46736 0.474867 0.482382 0.48989 0.497398
0.504906 0.512414 0.519929 0.527438 0.534946 0.542454 0.549962 0 0.00503014 0.0100663
0.0150996 0.0201271 0.0251497 0.0289155 0.0326694 0.0364114 0.040143 0.0438578 0.0475527 0.0512422
0.0549307 0.0586183 0.0623095 0.0696965 0.0771198 0.0845738 0.0920442 0.0995359 0.107048 0.114562
0.12208 0.129602 0.137126 0.144655 0.152178 0.159701 0.167224 0.174746 0.182274 0.189795
0.197316 0.204837 0.212357 0.219884 0.227404 0.234924 0.242445 0.249965 0.257492 0.265013
0.272534 0.280055 0.287575 0.295103 0.302624 0.310146 0.317667 0.325188 0.332717 0.340238
0.347759 0.355281 0.362803 0.370332 0.377853 0.385375 0.392897 0.400419 0.407949 0.415471
0.422993 0.430516 0.438038 0.445568 0.453091 0.460613 0.468136 0.475659 0.483189 0.490712
0.498235 0.505759 0.513282 0.520813 0.528336 0.53586 0.543383 0.550907 0 0.00268272
0.00536712 0.00805321 0.0107387 0.0139177 0.0161729 0.0184278 0.020682 0.0229353 0.0251895 0.0267173
0.0282429 0.0297657 0.0312855 0.0336798 0.0357123 0.0377392 0.0397605 0.0417763 0.0437806 0.0474593
0.0511394 0.0548207 0.0585086 0.0622092 0.0622368 0.0622645 0.0622921 0.0623197 0.0623476 0.0660026
0.0696675 0.0733423 0.0770274 0.0807223 0.0813118 0.0819013 0.0824909 0.0830806 0.0836559 0.0868155
0.0899778 0.0931426 0.0963101 0.0994796 0.107 0.114522 0.122049 0.129581 0.137118 0.144661
0.152198 0.159735 0.167272 0.174808 0.182351 0.189887 0.197422 0.204957 0.212492 0.220033
0.227568 0.235103 0.242638 0.250173 0.257715 0.26525 0.272786 0.280321 0.287856 0.295399
0.302935 0.310471 0.318006 0.325542 0.333086 0.340622 0.348158 0.355694 0.36323 0.370774
0.37831 0.385847 0.393383 0.40092 0.408464 0.416001 0.423538 0.431075 0.438612 0.446157
0.453694 0.461232 0.468769 0.476307 0.483852 0.491389 0.498927 0.506465 0.514003 0.521548
0.529086 0.536625 0.544163 0.551701 0 0.00126445 0.00252928 0.00379479 0.00506109 0.00632823
0.0101158 0.0139117 0.0177191 0.0215333 0.0253299 0.0269121 0.0284842 0.0300494 0.0316075 0.032994
0.0333217 0.033649 0.033976 0.0343027 0.0346294 0.0364577 0.0382789 0.0400911 0.0418981 0.0436956
0.0454961 0.0473012 0.0491183 0.0509403 0.0527665 0.0529233 0.05308 0.0532368 0.0533936 0.0535583
0.0552313 0.056907 0.0585854 0.0602668 0.0619507 0.0656464 0.069359 0.0730897 0.0768311 0.0805816
0.0843452 0.0881079 0.0918714 0.0956375 0.099406 0.106942 0.11448 0.122022 0.129568 0.137118
0.144684 0.152237 0.15979 0.167342 0.174895 0.182456 0.190007 0.197559 0.205111 0.212662
0.22022 0.227771 0.235322 0.242873 0.250425 0.257983 0.265535 0.273086 0.280638 0.288189
0.295749 0.3033 0.310852 0.318404 0.325956 0.333515 0.341068 0.34862 0.356172 0.363724
0.371284 0.378837 0.386389 0.393942 0.401494 0.409055 0.416607 0.42416 0.431713 0.439266
0.446827 0.45438 0.461933 0.469486 0.47704 0.484601 0.492154 0.499707 0.507261 0.514815
0.522376 0.52993 0.537483 0.545037 0.552591 0 0.00126545 0.00253142 0.0037979 0.00506489
0.00633243 0.00822682 0.0101236 0.0120228 0.0139249 0.0158291 0.0177466 0.0196689 0.0215922 0.0235187
0.0254575 0.0264287 0.0273971 0.0283612 0.0293208 0.0302803 0.0307558 0.0312297 0.0317016 0.0321714
0.0326837 0.0331395 0.0335933 0.034045 0.0344948 0.0349421 0.0358525 0.0367597 0.0376628 0.0385617
0.0394516 0.0403408 0.0412285 0.0421155 0.0430022 0.0438894 0.045247 0.0466115 0.047983 0.0493333
0.0528844 0.0547133 0.056556 0.0584101 0.0602708 0.0621323 0.0640036 0.0658761 0.0677508 0.0696282
0.0715095 0.0733983 0.0752814 0.0771609 0.0790421 0.0809285 0.0840455 0.0871665 0.0902892 0.0934135
0.096058 0.0968308 0.0976037 0.0983767 0.0991499 0.0999232 0.107517 0.115112 0.122712 0.130315
0.137922 0.145554 0.153161 0.160764 0.168366 0.175968 0.183589 0.191188 0.198786 0.206384
0.213982 0.221598 0.229195 0.236791 0.244388 0.251984 0.259599 0.267195 0.274791 0.282387
0.289983 0.297596 0.305192 0.312788 0.320383 0.327979 0.335591 0.343186 0.350781 0.358377
0.365972 0.373582 0.381178 0.388772 0.396367 0.403962 0.411571 0.419166 0.42676 0.434355
0.44195 0.449558 0.457152 0.464746 0.47234 0.479935 0.487541 0.495136 0.502729 0.510323
0.517917 0.525522 0.533116 0.540709 0.548302 0.555896 0 0.00126279 0.00252626 0.00379076
0.00505643 0.00632329 0.00823332 0.0101454 0.0120611 0.0139803 0.0159047 0.017822 0.0197523 0.0216954
0.0236512 0.0256293 0.0266293 0.02763 0.0286312 0.0296317 0.030644 0.0308915 0.0311391 0.0313863
0.0316316 0.0318215 0.0325722 0.0333105 0.0340358 0.0347474 0.0354512 0.0358985 0.036344 0.0367879
0.0372304 0.0376668 0.0381044 0.038539 0.0389711 0.0394026 0.0398315 0.0402633 0.0406952 0.0411272
0.0415597 0.0419948 0.0424302 0.042865 0.0433 0.043736 0.0441742 0.045051 0.0459372 0.0468335
0.0477415 0.0486669 0.0494266 0.050185 0.0509459 0.0517102 0.0526551 0.0527957 0.0529365 0.0530773
0.0532181 0.0533591 0.0543131 0.055266 0.0562209 0.0571779 0.0581373 0.0591058 0.0600734 0.061042
0.0620136 0.0629869 0.0649557 0.066919 0.0688768 0.0708391 0.0727849 0.0747163 0.0766628 0.0786245
0.0805902 0.0825604 0.0865209 0.0904728 0.0943986 0.0983095 0.102224 0.110051 0.117846 0.125569
0.133234 0.140903 0.148601 0.156278 0.163949 0.171616 0.179282 0.186963 0.194627 0.202289
0.209949 0.217608 0.225282 0.232941 0.240598 0.248255 0.255911 0.263581 0.271237 0.278892
0.286546 0.294199 0.301865 0.309519 0.317172 0.324824 0.332475 0.340138 0.347789 0.35544
0.36309 0.37074 0.378399 0.386048 0.393697 0.401345 0.408992 0.416649 0.424296 0.431943
0.439589 0.447234 0.454888 0.462533 0.470178 0.477822 0.485466 0.493117 0.50076 0.508403
0.516045 0.523687 0.531334 0.538976 0.546617 0.554258 0.561899 0 0.00126442 0.00252948
0.0037952 0.00506156 0.00632917 0.00824622 0.0101657 0.0120885 0.0140175 0.0159587 0.0169288 0.0179018
0.0188779 0.0198572 0.0208397 0.0218274 0.0228231 0.0238278 0.0248416 0.0258657 0.0263833 0.0269027
0.0274258 0.0279524 0.0284855 0.0287762 0.0290683 0.0293627 0.0296599 0.0297577 0.0300575 0.0303586
0.0306607 0.0309624 0.0312725 0.0313687 0.0314649 0.0315613 0.0316578 0.0317284 0.0317642 0.0318
0.0318358 0.0318716 0.0319056 0.0320688 0.0322318 0.0323947 0.0325574 0.0327214 0.0329005 0.0330792
0.0332574 0.0334327 0.033562 0.0336673 0.033772 0.0338762 0.0339794 0.0340841 0.0341941 0.0343026
0.0344096 0.0345157 0.0346024 0.0346576 0.0347125 0.034767 0.0348213 0.0348743 0.0349716 0.0350684
0.0351648 0.0352608 0.0353546 0.0354773 0.0355985 0.0357183 0.035837 0.0360315 0.036131 0.0362302
0.036329 0.0364277 0.0365167 0.0366038 0.036691 0.0367781 0.0368652 0.0370241 0.0371456 0.037267
0.0373881 0.037509 0.0376283 0.0378471 0.0380643 0.0382815 0.0384992 0.0387132 0.038931 0.0391482
0.0393656 0.0395835 0.0398012 0.0400217 0.0402406 0.0404597 0.0406791 0.0408993 0.0411193 0.0413388
0.0415586 0.0417792 0.0420023 0.0422265 0.042449 0.0426716 0.0428948 0.043119 0.0434492 0.0437809
0.0441181 0.0444611 0.0446247 0.0447889 0.0449535 0.0451184 0.0452837 0.0454503 0.0459372 0.0464165
0.046896 0.0473712 0.0478678 0.0483853 0.0488922 0.0493999 0.0499125 0.0504323 0.0504982 0.0505641
0.0506302 0.0506964 0.0507613 0.051773 0.0528273 0.0539274 0.0549894 0.0560639 0.0572688 0.0584515
0.0596357 0.0608258 0.062016 0.0624147 0.0628125 0.0632102 0.0636081 0.0640562 0.0648652 0.0656659
0.066464 0.0672643 0.0680634 0.068175 0.0682863 0.0683974 0.0685082 0.0686183 0.0697 0.0707745
0.071847 0.0729175 0.0739826 0.0751362 0.0763113 0.0774901 0.0786703 0.0798532 0.0812948 0.0827374
0.0841866 0.0856404 0.0874672 0.0882497 0.0890288 0.0898044 0.0905766 0.0913448 0.0958573 0.100345
0.104758 0.109079 0.113269 0.121447 0.129562 0.137604 0.145573 0.15346 0.161221 0.168982
0.17674 0.184496 0.192249 0.199998 0.207747 0.215494 0.22324 0.230983 0.237197 0.243411
0.249625 0.255837 0.262139 0.263646 0.265153 0.26666 0.268167 0.269674 0.277408 0.285143
0.292879 0.300614 0.30835 0.316076 0.323811 0.331546 0.339282 0.347017 0.354736 0.362471
0.370206 0.37794 0.385675 0.393388 0.401122 0.408856 0.41659 0.424324 0.432031 0.439764
0.447497 0.45523 0.462964 0.470665 0.478397 0.486129 0.493861 0.501593 0.509289 0.51702
0.524751 0.532482 0.540212 0.547902 0.555631 0.563359 0.571089 0.578818 0 0.00125411
0.00250917 0.00376554 0.00502335 0.00628273 0.00821404 0.010148 0.0120848 0.0140287 0.0159869 0.0169596
0.0179361 0.0189168 0.0199014 0.0208902 0.0218847 0.0228899 0.0239068 0.0249356 0.0259772 0.0265058
0.0270377 0.0275762 0.0281216 0.0286758 0.0292413 0.0298146 0.0304008 0.031001 0.0316277 0.0319466
0.0322654 0.0325848 0.0329054 0.0332403 0.0333125 0.0333847 0.0334569 0.0335291 0.0335878 0.0336628
0.0337364 0.0338092 0.0338814 0.0339425 0.0341141 0.0342825 0.0344475 0.0346091 0.0347761 0.0349185
0.0350581 0.0351952 0.0353289 0.035448 0.0355685 0.0356885 0.0358079 0.0359257 0.0360377 0.0361548
0.0362689 0.03638 0.0364906 0.0366362 0.0367436 0.0368507 0.0369577 0.0370644 0.0371624 0.0373625
0.0375627 0.0377663 0.0379729 0.038395 0.0386261 0.0388572 0.0390862 0.0393132 0.0395356 0.0399982
0.0404547 0.0409078 0.0413578 0.0418031 0.0422607 0.0427028 0.0431484 0.0435971 0.0440488 0.0445228
0.0449906 0.0454695 0.0459531 0.0464447 0.0472878 0.0481503 0.0490263 0.0499114 0.0517885 0.0529131
0.0540389 0.0551883 0.0563575 0.0575604 0.0588205 0.0600535 0.0612696 0.0624951 0.0637261 0.0646035
0.0654688 0.0663334 0.0671929 0.0683007 0.0686272 0.0689539 0.0692807 0.069608 0.0699357 0.070621
0.0713068 0.0719934 0.0726812 0.0735053 0.0740366 0.0745675 0.0750983 0.0756278 0.0761548 0.077398
0.0786451 0.0798999 0.0811556 0.0824111 0.0849035 0.0873999 0.0898658 0.0922892 0.0946853 0.0995223
0.10431 0.108958 0.11347 0.117829 0.121221 0.124602 0.12797 0.131327 0.135398 0.140195
0.144931 0.149607 0.154225 0.158785 0.166545 0.174315 0.182084 0.189851 0.197618 0.205362
0.213127 0.220891 0.228655 0.236419 0.244152 0.251914 0.259676 0.267438 0.2752 0.282925
0.290685 0.298446 0.306207 0.313968 0.321686 0.329445 0.337205 0.344965 0.352725 0.360436
0.368194 0.375953 0.383712 0.39147 0.399176 0.406933 0.41469 0.422447 0.430204 0.437904
0.445659 0.453415 0.461171 0.468927 0.47662 0.484374 0.492128 0.499882 0.507637 0.515325
0.523078 0.53083 0.538582 0.546334 0.554017 0.561766 0.569515 0.577264 0.585014 0
0.00125903 0.00251874 0.00377913 0.00504095 0.0063044 0.00823309 0.0101647 0.0120993 0.0140412 0.0159973
0.0169702 0.0179472 0.0189283 0.0199135 0.0209031 0.0218976 0.0229027 0.0239194 0.0249479 0.0259894
0.0265184 0.0270503 0.0275879 0.0281322 0.0286859 0.0292489 0.0298195 0.0303996 0.0309922 0.0316144
0.0319306 0.0322473 0.0325645 0.0328817 0.0332114 0.0334489 0.0336851 0.0339193 0.0341475 0.0342442
0.0343481 0.034451 0.0345527 0.0346534 0.0347567 0.0349578 0.035152 0.0353396 0.0355213 0.0356758
0.0357531 0.0358301 0.0359064 0.0359819 0.0360642 0.0360646 0.0360651 0.0360655 0.036066 0.0360664
0.0362112 0.0363546 0.0364966 0.0366373 0.0368433 0.0369197 0.036996 0.0370722 0.0371482 0.0372204
0.037679 0.0381425 0.0386194 0.039104 0.0395186 0.0399808 0.040432 0.0408818 0.0413338 0.0417935
0.0422691 0.0427351 0.0431979 0.0436631 0.0441375 0.0446294 0.0451119 0.0455892 0.0460718 0.0465681
0.0476008 0.0486555 0.0497217 0.050807 0.0515772 0.0516476 0.0517178 0.051788 0.0518581 0.0519283
0.0530549 0.0542065 0.0553859 0.0565885 0.0578112 0.0590828 0.0603311 0.0615596 0.0628044 0.0640428
0.0646656 0.065278 0.0658878 0.0664961 0.0671075 0.0677329 0.0683486 0.0689552 0.0695635 0.0701774
0.0714267 0.0726859 0.0739421 0.0751933 0.0764341 0.0771924 0.0779436 0.078696 0.07945 0.0802919
0.0807357 0.0811796 0.081624 0.0820692 0.0825044 0.082542 0.0825797 0.0826174 0.0826551 0.0826927
0.0852011 0.0876944 0.0901728 0.0925933 0.0949851 0.0997461 0.104459 0.109061 0.113551 0.117899
0.124795 0.131603 0.138292 0.144868 0.159168 0.16266 0.166151 0.169641 0.173131 0.17669
0.180935 0.185179 0.189423 0.193667 0.197911 0.20565 0.213394 0.221137 0.22888 0.236623
0.244351 0.252093 0.259834 0.267575 0.275317 0.283037 0.290777 0.298518 0.306258 0.313999
0.321712 0.329452 0.337192 0.344932 0.352672 0.360379 0.368118 0.375857 0.383596 0.391335
0.399036 0.406774 0.414512 0.42225 0.429988 0.437684 0.44542 0.453157 0.460894 0.468631
0.476321 0.484057 0.491792 0.499528 0.507264 0.514949 0.522683 0.530417 0.538151 0.545885
0.553565 0.561296 0.569027 0.576759 0.584491 0 0.00127992 0.00256048 0.00384229 0.00512559
0.00641038 0.00831681 0.0102258 0.0121374 0.0140556 0.0159859 0.0169579 0.0179331 0.0189115 0.0198934
0.0208788 0.021873 0.0228762 0.0238892 0.0249122 0.0259474 0.0263889 0.026832 0.0272785 0.0277285
0.0278524 0.0280021 0.0281521 0.0283021 0.0284523 0.0286027 0.0291461 0.0296938 0.0302486 0.0308123
0.0313969 0.0314714 0.0315458 0.0316202 0.0316947 0.0317594 0.0319772 0.0321949 0.0324125 0.0326299
0.0328508 0.0329305 0.03301 0.0330896 0.0331688 0.0332376 0.0334487 0.033659 0.0338683 0.0340742
0.0342865 0.0343487 0.0344103 0.0344716 0.0345325 0.0345853 0.0345908 0.0345962 0.0346017 0.0346071
0.0346125 0.0348279 0.0350387 0.0352451 0.035444 0.0356345 0.0356562 0.0356778 0.0356994 0.035721
0.035743 0.0358447 0.0359455 0.0360452 0.0361462 0.0362906 0.0363844 0.0364776 0.0365701 0.0366617
0.0367509 0.036855 0.0369583 0.0370612 0.0371642 0.0373128 0.0374116 0.0375102 0.0376089 0.0377083
0.0378054 0.0380172 0.0382272 0.0384366 0.0386454 0.0388574 0.0390774 0.0392929 0.039504 0.0397152
0.0399291 0.0401452 0.0403596 0.040573 0.0407871 0.0410037 0.0412247 0.0414423 0.0416585 0.041875
0.0420926 0.0423114 0.0425287 0.0427458 0.0429633 0.0431822 0.0436272 0.0440725 0.0445211 0.0449731
0.0454333 0.0459121 0.0463789 0.0468376 0.0472993 0.0477746 0.0482573 0.0487382 0.0492191 0.0497038
0.0501965 0.0512129 0.0522351 0.05327 0.0543588 0.0554643 0.0558119 0.0561598 0.0565087 0.056859
0.057228 0.0580368 0.058845 0.0596527 0.0604641 0.0612837 0.0624837 0.0636605 0.0648443 0.0660429
0.0672353 0.0684619 0.0696646 0.0708453 0.0720195 0.0731857 0.0736119 0.0740374 0.0744634 0.0748896
0.0753081 0.0756197 0.0759314 0.0762433 0.0765553 0.0768754 0.0773106 0.0777461 0.078182 0.0786182
0.0790548 0.0814004 0.083748 0.0860946 0.0884111 0.0907009 0.0952127 0.0997772 0.104246 0.108573
0.112792 0.121105 0.129387 0.137606 0.145653 0.15353 0.161272 0.169013 0.176751 0.184486
0.192218 0.199946 0.207673 0.2154 0.223124 0.230846 0.236957 0.243067 0.249176 0.255285
0.261393 0.263002 0.26461 0.266219 0.267827 0.269435 0.277149 0.284864 0.29258 0.300295
0.308011 0.315718 0.323433 0.331148 0.338864 0.346579 0.35428 0.361994 0.369709 0.377424
0.385139 0.392834 0.400548 0.408263 0.415977 0.423692 0.431381 0.439095 0.446808 0.454522
0.462236 0.46992 0.477633 0.485345 0.493058 0.500771 0.508451 0.516162 0.523874 0.531585
0.539297 0.546971 0.554681 0.562391 0.570101 0.577811 0 0.00127753 0.00255577 0.00383512
0.00511576 0.00639767 0.00829925 0.0102028 0.0121091 0.0140203 0.0159396 0.0169038 0.0178698 0.0188378
0.019808 0.0207805 0.0217542 0.022733 0.023717 0.0247056 0.025698 0.0266887 0.0276858 0.0286911
0.0296916 0.0307001 0.0307751 0.0308502 0.0309253 0.0310001 0.0310694 0.0319918 0.0328946 0.033777
0.0346382 0.0354968 0.0359447 0.0363903 0.0368339 0.0372764 0.0377134 0.0381519 0.0385879 0.0390231
0.0394576 0.0398863 0.0403193 0.0407525 0.041186 0.0416198 0.0420542 0.0424903 0.0429254 0.0433613
0.0437982 0.0442369 0.0451149 0.0460015 0.0468947 0.0477954 0.0487212 0.0496683 0.0506079 0.051541
0.0524809 0.0534303 0.05415 0.0548749 0.055602 0.0563308 0.0574425 0.057611 0.0577796 0.0579484
0.0581172 0.0582862 0.0592699 0.060253 0.0612364 0.0622196 0.0632019 0.065202 0.067189 0.0691654
0.0711513 0.0731345 0.0750929 0.0770775 0.0790769 0.0810804 0.0830857 0.087098 0.0911271 0.0951243
0.0990766 0.103023 0.105848 0.108677 0.111514 0.114345 0.11767 0.12267 0.127642 0.132587
0.137504 0.142394 0.150104 0.157817 0.165527 0.173235 0.18094 0.188634 0.196335 0.204034
0.211732 0.219429 0.227116 0.234809 0.242501 0.250192 0.257883 0.265565 0.273253 0.28094
0.288626 0.296311 0.30399 0.311673 0.319355 0.327036 0.334717 0.342392 0.350071 0.357749
0.365426 0.373102 0.380774 0.388449 0.396123 0.403796 0.411468 0.419137 0.426808 0.434478
0.442148 0.449816 0.457483 0.46515 0.472816 0.480482 0.488148 0.495811 0.503475 0.511138
0.518801 0.526462 0.534122 0.541783 0.549443 0.557102 0.564762 0 0.00127409 0.0025488
0.00382396 0.00510034 0.00637796 0.00827386 0.0101719 0.0120722 0.0139755 0.015883 0.0177923 0.0197068
0.0216262 0.0235503 0.0254823 0.0264532 0.027421 0.0283839 0.0293419 0.0299595 0.0309778 0.0319885
0.0329888 0.0339788 0.0349571 0.035866 0.0367715 0.037673 0.0385715 0.039461 0.0403516 0.0412407
0.0421287 0.0430157 0.0439019 0.0456791 0.0474736 0.0492825 0.0511012 0.0529363 0.0537918 0.0546485
0.0555072 0.056368 0.0576968 0.0585969 0.0594989 0.0604028 0.0613085 0.0622157 0.0640913 0.0659698
0.067851 0.0697349 0.0716207 0.0735163 0.0754039 0.0772925 0.0791826 0.0810737 0.0848696 0.0886647
0.0924643 0.0962683 0.100086 0.107785 0.115487 0.123144 0.130764 0.138398 0.146047 0.153694
0.161339 0.168982 0.176624 0.18427 0.191913 0.199554 0.207194 0.214832 0.222474 0.230112
0.23775 0.245386 0.253021 0.26066 0.268295 0.27593 0.283564 0.291197 0.298833 0.306466
0.314099 0.321731 0.329361 0.336995 0.344626 0.352256 0.359886 0.367515 0.375146 0.382775
0.390403 0.398031 0.405657 0.413286 0.420913 0.42854 0.436165 0.44379 0.451417 0.459042
0.466666 0.47429 0.481913 0.489537 0.497161 0.504783 0.512405 0.520025 0.527648 0.535269
0.542889 0.550509 0.558128 0 0.00127141 0.00254321 0.00381554 0.00508845 0.00636198 0.0101414
0.0139323 0.0177224 0.0215091 0.0252996 0.0257902 0.0262796 0.0267681 0.0272557 0.0276851 0.0290749
0.0304594 0.0318388 0.033213 0.0345847 0.0364258 0.0382574 0.0400722 0.0418828 0.0436884 0.0454996
0.0473082 0.0491182 0.0509369 0.052767 0.0546032 0.0564409 0.0582814 0.0601248 0.0619708 0.065673
0.069389 0.073121 0.076868 0.0806186 0.084389 0.0881575 0.0919263 0.0956971 0.0994703 0.107
0.114528 0.122061 0.12961 0.137173 0.144751 0.152327 0.159904 0.167482 0.175058 0.182639