# vtk DataFile Version 2.0
sampleSurface
ASCII
DATASET POLYDATA
POINTS 2021 float
-0.500032 0 0.11501 -0.499951 3.38813e-21 0.0392727 -0.789037 8.47033e-21 0.120673 -0.500013 -1.35525e-20
0.193965 1.00003 0 0.0485099 1.00003 0 0.0478584 0.475202 0 0.0353615
0.250044 1.41878e-20 0.0305359 0.2506 -5.42101e-20 0.117067 0.251301 0 0.203885 0.364989
0 0.203772 1.75002 0 0.113255 1.75002 0 0.0564279 2.50001 6.89146e-18
0.059229 2.21354 0 0.250758 2.50001 0 0.252875 3.25001 -3.47927e-17 0.0598775
3.25001 -1.69407e-21 0.253888 4.00001 5.60566e-18 0.0599857 4 0 0.253986 4.75
-1.79088e-17 0.0599988 4.75 8.47033e-22 0.253998 5.5 -2.79246e-17 0.0599999 5.5 -4.23516e-22
0.253999 6.25 1.01187e-17 0.06 6.25 0 0.254 7 2.93732e-17 0.06
7 0 0.254 7.75 -2.65294e-17 0.06 7.75 0 0.254 8.5
1.8923e-17 0.06 8.5 0 0.254 9.25 -2.88552e-17 0.06 9.25 -5.29396e-23
0.254 10 -2.64698e-23 0.254 10 0 0.06 -4.24997 0 0.0599042
-5 0 0.0599861 -5 0 0.253986 -4.24997 0 0.253912 -3.49995
0 0.0593815 -3.49994 0 0.253441 -2.74993 0 0.0570188 -2.74991 0
0.251316 -1.99991 0 0.0492276 -1.99987 0 0.242776 -1.24992 -1.69407e-21 0.03
-1.24985 1.23328e-17 0.222327 -1.24989 3.38813e-21 0.125756 -0.874924 2.08116e-17 0.03 -0.874929
0 0.122356 -0.124951 -8.47033e-22 0.03 -0.499941 0 0.03 -0.124922 -8.47033e-22
0.0385291 1.00021 0 0.231242 0.625368 0 0.203537 0.25004 -2.11758e-22 0.03
1.75003 0 0.247334 1.92873 1.69407e-21 0.441438 2.50001 0 0.447397 3.25
-1.69407e-21 0.447898 4 0 0.447986 4.75 0 0.447997 5.5 -4.23516e-22
0.447999 6.25 4.23516e-22 0.447999 7 0 0.448 7.75 -1.05879e-22 0.448
8.5 0 0.448 9.25 0 0.448 10 -2.64698e-23 0.448 -5
-8.47033e-22 0.447985 -4.24997 0 0.447919 -3.49993 0 0.4475 -2.74988 0
0.445609 -1.9998 6.77626e-21 0.437758 -1.24969 1.61411e-17 0.417681 -1.24976 -6.77626e-21 0.31973
-0.875161 7.70461e-18 0.216228 -0.875403 0 0.312476 -0.499924 -8.74138e-19 0.250039 -0.312433
0 0.250037 -0.312436 0 0.200025 -0.499924 0 0.200026 0.250062 3.38813e-21
0.24921 0.250039 -1.69407e-21 0.250046 0.250032 0 0.300069 0.437526 3.05948e-18 0.300066
0.625026 0 0.30005 1.00072 -8.23994e-18 0.326497 1.00196 0 0.423 1.75013
0 0.439575 1.75013 1.77877e-20 0.448245 1.00135 0 0.537141 1.00002 0
0.61834 1.74999 2.71051e-20 0.633055 2.49999 -3.38813e-21 0.641448 3.25 0 0.641907
4 -1.69407e-21 0.641985 4.75 -8.47033e-22 0.641996 5.5 -4.23516e-22 0.641998 6.25
0 0.641999 7 0 0.641999 7.75 0 0.642 8.5 5.29396e-23
0.642 9.25 -5.29396e-23 0.642 10 0 0.642 -5 0 0.641985
-4.24997 -1.69407e-21 0.641926 -3.49993 0 0.641557 -2.74988 0 0.639897 -1.99989
6.77626e-21 0.63382 -1.25099 2.55465e-18 0.614606 -1.25 -2.71051e-20 0.515981 -0.878244 0
0.50789 -0.875961 2.71051e-20 0.459694 -0.875609 0 0.410432 -0.498432 0 0.400603
-0.498071 -1.70762e-18 0.413126 -0.450805 0 0.413349 -0.45095 0 0.400955 0.250009
1.89735e-19 0.412703 0.25 2.71051e-20 0.425212 0.296872 1.00289e-18 0.425187 0.343754 -2.71051e-20
0.425153 0.343763 0 0.400146 0.250006 0 0.400175 1.00162 1.41488e-17 0.520353
-2 4.23516e-22 0.820145 -2.09502 -2.11758e-22 0.830091 -2 0 0.829497 -1.25123
0 0.813251 -1.25126 0 0.713737 -1.25101 6.77626e-21 0.62198 1.00059 0
0.714169 1.00094 0 0.809205 1.75018 0 0.82775 2.5 0 0.835521
3.25 0 0.835917 4 -1.69407e-21 0.835986 4.75 -8.47033e-22 0.835996 5.5
0 0.835998 6.25 0 0.835999 7 0 0.835999 7.75 0
0.836 8.5 0 0.836 9.25 0 0.836 10 0 0.836
-5 -8.47033e-22 0.835986 -4.24997 0 0.835935 -3.49995 0 0.835616 -2.74991
0 0.83419 -0.970118 0 0.703382 -0.87455 0 0.699864 -0.874264 -2.71051e-20
0.649852 -0.874033 -2.71051e-20 0.599873 -0.49698 0 0.599585 -0.497345 -9.21572e-19 0.612046
-0.450014 0 0.611892 -0.44938 2.71051e-20 0.599454 -2.00002 0 0.84097 -1.84639
-3.38813e-21 1.02215 -1.25185 0 1.01276 -0.896512 -3.38813e-21 0.900668 -0.908183 6.77626e-21
0.801076 -0.904022 -1.86347e-20 1.00093 0.624925 0 0.799916 0.249931 0 0.799891
0.249978 0 0.899916 0.249997 0 0.999939 0.999987 0 0.999957 1.75061
-2.1684e-19 1.02409 2.50003 0 1.0296 3.25 -1.69407e-21 1.02993 4 0
1.02999 4.75 0 1.03 5.5 0 1.03 6.25 2.11758e-22 1.03
7 0 1.03 7.75 0 1.03 8.5 5.29396e-23 1.03 9.25
0 1.03 10 0 1.03 -5 0 1.02999 -4.24998 0
1.02994 -3.49996 -8.47033e-22 1.02968 -2.74996 0 1.02849 -2.00026 0 1.02458
-0.87482 0 0.799893 -0.87491 0 0.899919 -0.49993 0 0.799862 -0.499958
7.6233e-19 0.849889 -0.312476 0 0.849885 -0.312472 0 0.799853 -1.25001 8.04681e-21
1.19601 -0.499979 5.29396e-23 1.10737 -0.731886 2.11758e-22 1.19997 -0.499981 0 1.19997
-0.124987 0 0.999933 -0.477759 -5.29396e-23 0.999933 -0.487556 -1.45584e-22 1.09995 0.250008
0 1.19997 1 0 1.19997 1.7507 0 1.22203 2.50003 -1.35525e-20
1.22368 3.25 0 1.22394 4 0 1.22399 4.75 4.23516e-22 1.224
5.5 0 1.224 6.25 2.11758e-22 1.224 7 0 1.224 7.75
1.05879e-22 1.224 8.5 0 1.224 9.25 0 1.224 10 2.64698e-23
1.224 -5 4.23516e-22 1.22399 -4.24999 -4.23516e-22 1.22395 -3.49998 0 1.22374
-2.75001 0 1.22279 -2.00077 0 1.21965 -1.24997 4.23516e-22 1.19997 -0.499969
-5.29396e-23 0.999933 -0.874942 0 0.999936 -0.499979 -1.32349e-23 1.09995 -2.75001 0
1.36967 -3.18711 4.23516e-22 1.41751 -2.75001 4.23516e-22 1.4171 -2.00072 3.38813e-21 1.29692
-2.00065 0 1.41474 -1.25823 6.35275e-21 1.40014 -0.980416 0 1.39998 -0.499986
0 1.39998 0.250009 0 1.39998 1 0 1.39998 1.75054 0
1.41682 2.50002 -1.35525e-20 1.41776 3.25 0 1.41796 4 4.23516e-22 1.41799
4.75 0 1.418 5.5 0 1.418 6.25 0 1.418 7
0 1.418 7.75 0 1.418 8.5 0 1.418 9.25 0
1.418 10 0 1.418 -5 0 1.41799 -4.24999 0 1.41797
-3.49999 -4.23516e-22 1.41781 -1.24998 0 1.39998 -2.80392 1.32349e-23 1.61143 -2.75
-1.32349e-23 1.6114 -2.0003 0 1.60983 -1.25396 2.64698e-23 1.60004 -1.12789 2.64698e-23
1.59999 -0.49999 1.05879e-22 1.59999 0.250008 0 1.59999 1.00001 4.23516e-22 1.59999
1.75038 0 1.61122 2.50002 0 1.61184 3.25 -4.23516e-22 1.61197 4
-4.23516e-22 1.61199 4.75 0 1.612 5.5 0 1.612 6.25 0
1.612 7 0 1.612 7.75 5.29396e-23 1.612 8.5 2.64698e-23 1.612
9.25 -1.32349e-23 1.612 10 -1.32349e-23 1.612 -5 0 1.61199 -4.24999
0 1.61198 -3.49999 0 1.61187 -1.24999 0 1.59999 -2.75 -1.32349e-23
1.63714 -2.64195 -2.11758e-22 1.80559 -2.00012 -8.47033e-22 1.80492 -1.25741 0 1.80004
-1.19082 -7.94093e-23 1.8 -0.499992 1.05879e-22 1.79999 0.250006 2.11758e-22 1.79999 1
0 1.8 1.75023 0 1.80561 2.50001 3.38813e-21 1.80592 3.25 0
1.80599 4 0 1.806 4.75 2.11758e-22 1.806 5.5 0 1.806
6.25 0 1.806 7 0 1.806 7.75 0 1.806 8.5
2.64698e-23 1.806 9.25 0 1.806 10 0 1.806 -5 0
1.806 -4.25 -2.11758e-22 1.80599 -3.49999 0 1.80594 -2.75 -1.05879e-22 1.8057
-1.24999 0 1.8 -2 -4.76456e-22 1.98532 -1.20969 -1.65436e-23 2 -0.499993
0 2 0.250006 0 2 1 0 2 1.75 0
2 2.5 0 2 3.25 0 2 4 0 2
4.75 -1.05879e-22 2 5.5 0 2 6.25 0 2 7
5.29396e-23 2 7.75 0 2 8.5 0 2 9.25 0
2 10 -1.32349e-23 2 -5 2.21817e-18 2 -4.25 1.05879e-22 2
-3.49999 0 2 -2.74999 0 2 -1.99999 -5.29396e-23 2 -1.24999
3.30872e-24 2 0.0956945 -5.42101e-20 0.203879 0.0632748 0 0.203876 0.0625511 0
0.250042 -0.403589 6.77626e-21 0.40138 -0.405779 7.7927e-19 0.38799 -0.406379 -6.77626e-21 0.375196
-0.499567 -1.35525e-20 0.375265 0.250006 -6.50521e-19 0.375144 0.156247 0 0.375155 0.156237
9.41901e-19 0.400212 0.203129 0 0.400201 0.249796 0 0.59991 0.249852 -1.0842e-19
0.587433 0.202953 0 0.587417 0.202888 6.50521e-19 0.599901 0.625121 -6.77626e-21 0.499953
0.717439 6.77626e-21 0.504955 0.625095 6.77626e-21 0.475379 0.343596 1.0842e-19 0.599918 0.343639
0 0.574939 0.296781 0 0.574964 0.249926 0 0.574977 0.62499 -4.2826e-18
0.549927 0.624917 4.55365e-18 0.599925 0.203133 0 0.412725 -0.449046 0 0.587135
-0.496581 5.42101e-20 0.587161 0.625036 -9.32414e-18 0.40006 0.625067 1.13164e-18 0.450032 0.249704
0 0.624881 0.155871 0 0.599866 0.155839 1.95156e-18 0.624853 0.249886 1.35525e-20
0.749873 0.062411 0 0.749846 0.0624478 -4.26227e-18 0.799869 -0.312472 0 0.749804
-0.499901 -3.38813e-21 0.749824 -0.691227 0 0.30453 -0.499912 3.02221e-18 0.300065 -0.875784
-3.11708e-18 0.361353 -0.592465 -2.71051e-20 0.40036 -0.499854 0 0.350135 -0.687111 1.35525e-20
0.350117 -0.68656 -2.71051e-20 0.40021 0.437526 -1.35525e-20 0.400108 0.437522 6.77626e-21 0.350086
0.250015 -2.51399e-18 0.35011 0.625027 3.38813e-21 0.350064 -0.592287 0 0.425286 -0.498048
0 0.425444 -0.873902 5.42101e-18 0.54992 -0.496663 0 0.574746 -0.591532 0
0.574798 -0.591729 0 0.599734 -0.149108 0 0.406489 -0.149477 -5.29396e-23 0.403592
-0.149678 0 0.406489 -0.451876 -2.1684e-18 0.499977 -0.451579 0 0.487563 -0.498366
0 0.487552 -0.498515 -1.0842e-19 0.499993 0.437553 0 0.450075 0.437532 -6.07153e-18
0.425113 0.254621 -1.25361e-19 0.496697 0.26485 -5.42101e-20 0.498023 0.264831 0 0.496529
0.254636 -2.30393e-19 0.49668 0.570241 0 0.499932 0.437665 -2.71051e-20 0.474991 0.437859
-2.71051e-20 0.49988 0.437372 -1.0842e-19 0.599915 0.249722 3.25261e-19 0.649874 0.43732 -5.42101e-20
0.649899 0.624872 0 0.649914 0.624883 -3.95734e-18 0.699913 0.43734 6.83047e-18 0.699894
0.249817 0 0.699869 -0.592227 0 0.624743 -0.498071 -2.71051e-20 0.624658 -0.499769
6.77626e-21 0.69979 -0.687025 0 0.699824 -0.150854 -1.03677e-18 0.599678 -0.151059 -6.77626e-21
0.605522 -0.127339 6.77626e-21 0.605681 -0.127867 0 0.599582 -0.406139 -4.40457e-20 0.699754
-0.406113 0 0.674749 -0.499634 0 0.674774 -0.18433 -4.23516e-22 0.674527 -0.163626
-4.23516e-22 0.678958 -0.165125 0 0.674537 -0.171868 4.23516e-22 0.674524 -0.14924 3.34737e-19
0.400169 -0.125737 0 0.400165 -0.12551 0 0.393854 -0.149076 -2.11758e-22 0.393877
-0.499925 -2.61564e-18 0.325088 -0.406241 0 0.325087 -0.4062 0 0.300069 -0.124901
0 0.300062 -0.218633 -3.27294e-18 0.299673 -0.218596 1.35525e-20 0.324664 -0.124851 0
0.325085 -0.126061 7.86047e-19 0.406473 -0.0785222 1.30782e-18 0.400166 -0.126118 3.38813e-21 0.41275
-0.0785648 0 0.412729 0.240678 1.0842e-18 0.500153 0.252614 -2.1684e-19 0.498317 0.252386
1.0842e-19 0.496231 0.241035 0 0.496114 0.228892 -1.35525e-20 0.496204 0.228835 6.77626e-21
0.498715 0.229819 2.71051e-20 0.500074 0.25248 0 0.499935 0.240657 -1.6263e-19 0.500957
0.264863 0 0.500154 0.264689 0 0.500951 0.437443 0 0.549896 0.437406
[...]
POINT_DATA 2021
FIELD attributes 2
p 1 2021 float
2.00902 1.43761 2.36947 4.36196 0.0593375 0.0572255 -4.20287 -6.04076 -7.6888 -6.16123 -4.31793
0.496129 0.463994 0.111674 0.326521 0.174842 0.00323643 0.0270836 0.0052529 0.0142039 0.00933996
0.0153417 0.00459108 0.00973177 2.2132e-05 0.00439646 -0.00147282 0.00226102 -0.00110382 0.00210176 -0.000476294
0.00212632 0.000561466 0.00332889 0 0 0.614195 0.609743 0.609592 0.613909 0.635058
0.634161 0.704968 0.701837 0.926891 0.923601 1.64075 1.76225 1.77759 2.23584 2.47641
-4.05542 1.36759 -4.10823 0.650808 -0.109965 -6.03054 0.571923 0.441916 0.189552 0.0291019
0.00709437 0.00921022 0.00540529 0.000949854 -0.000623807 -0.0002634 -0.000385823 0.00266865 0 0.609158
0.613138 0.631746 0.692803 0.902491 1.95609 2.02881 3.1278 3.87193 7.32245 -3.30252
-1.05187 4.58194 -5.72244 -5.71451 -2.25505 0.3396 0.826672 1.02992 0.92516 0.520804
0.516602 0.847923 0.881126 0.426906 0.167072 0.0229224 0.00214767 0.00630798 0.00418875 0.000360259
-0.000952884 -0.000397615 -0.000240224 0.00287138 0 0.608467 0.611947 0.628109 0.680117 0.862055
1.84993 2.1357 5.13333 5.58737 4.82497 32.5724 36.4569 52.0263 45.9827 4.75071
4.89388 3.37883 3.41603 2.68049 4.08563 0.841057 0.808023 0.787563 0.80531 1.39638
1.78529 1.84515 0.991884 0.48209 0.349563 0.127696 0.0136351 0.000458894 0.00686654 0.00606648
0.00255045 0.00117595 0.00150898 0.00209404 0.00351305 0 0.60759 0.610465 0.623676 0.665242
3.2511 3.74938 4.6813 4.75938 34.3536 32.6924 44.6151 50.756 0.80148 0.781196
0.939623 1.70177 2.62619 1.14168 0.0801573 -4.87564 -5.2982 -2.74733 -0.228184 0.19108
0.0733363 -0.00545436 -0.0109101 -0.00101324 0.000806068 -0.00123325 -0.0017327 -0.00081242 0.000320696 0.00129218
0 0.60662 0.608842 0.618849 0.649266 0.740172 2.7457 1.73151 5.18609 3.29076
0.555309 -0.678346 0.697777 0.310703 0.312717 0.142698 -1.70924 0.672758 0.281189 -0.974022
-0.393574 0.097923 0.0647658 -0.0029238 -0.0109305 -0.00111241 0.00138951 -0.000402398 -0.000892028 -1.15233e-06
0.00107556 0.00158071 0 0.605654 0.607231 0.614002 0.633145 0.676717 0.692543 0.822731
1.15856 0.324169 0.621921 0.613217 0.618297 0.656469 0.625588 0.566597 0.383922 0.0595183
-0.564322 -0.377493 0.0461682 0.059261 -0.004355 -0.0151557 -0.00443456 -0.000817527 -0.00212266 -0.00236791
-0.00131113 -0.000119188 0.000457734 0 0.60479 0.605775 0.60958 0.565942 0.606529 0.606567
0.590524 0.495487 0.426968 0.0772163 -0.435341 -0.348694 -0.000998317 0.048024 -0.00791506 -0.0188027
-0.00651448 -0.0018064 -0.00271474 -0.00277907 -0.00162514 -0.000370742 0.000275875 0 0.604111 0.604602
0.606038 0.494981 0.605589 0.595008 0.570214 0.457857 0.42753 0.0865773 -0.365105 -0.332801
-0.0275001 0.042937 -0.00832055 -0.0198872 -0.00726499 -0.00221766 -0.00302981 -0.00303245 -0.00183392 -0.00055505
0.00013746 0 0.603672 0.603819 0.603696 0.599182 0.456734 0.563947 0.425381 0.0896823
-0.34274 -0.327664 -0.0357886 0.0414065 -0.00841865 -0.0203056 -0.00762261 -0.00244432 -0.0031869 -0.00312888
-0.00188908 -0.000591228 0.000122752 8.07701e-05 0.603518 0.603537 0.602853 0.596664 0.563437 0.444444
-10.28 -11.1375 -11.7845 70.4881 60.0783 43.8899 29.6716 2.93604 1.71714 4.41923
5.06454 4.13732 4.55152 6.18722 5.4035 2.022 1.7323 2.13717 2.95649 3.66514
3.35805 3.96357 2.24141 1.90887 6.03995 56.2447 39.4404 1.9305 2.25563 3.63963
4.74669 2.16726 -4.52139 -11.1941 -9.83656 -3.19521 8.46073 7.00326 11.9021 4.74838
17.4621 20.8185 9.13569 10.5156 2.57383 1.49674 1.00354 1.65274 19.7286 36.9135
5.61128 39.6404 20.3264 18.8167 -58.7616 -58.5428 -58.7584 68.4597 68.3729 47.5595
44.7937 3.39527 3.09756 -5.07294 0.308652 0.157847 -5.12279 2.58372 3.96897 3.93499
2.85296 1.8319 1.75302 1.62152 0.946461 0.756487 -1.35678 17.0026 28.1014 13.2924
7.27501 -56.5114 -56.3065 -58.7457 -58.6694 13.8703 19.1068 18.4805 -46.2752 -42.7147
-44.3923 -45.1289 -58.288 -57.5697 -57.5609 -57.6945 16.6102 15.8846 12.0031 -29.3556
-27.9747 -45.3676 -37.0461 -58.8923 -46.0055 -58.7119 -48.0988 11.0169 4.2803 10.5246
11.8746 9.11026 9.38811 9.67807 4.50236 11.1395 0.869304 0.699629 3.71338 3.46692
4.05848 4.31413 47.7519 68.3417 -58.7967 -56.4304 6.49571 11.145 -51.3847 -52.6965
-58.3948 4.45535 6.28733 6.45446 6.48396 -31.4139 -40.012 -49.4431 -29.7968 64.4076
60.7926 41.6554 41.4043 -44.0647 -56.0742 -11.5133 -8.55977 -0.427555 -24.5066 -42.4225
42.98 44.3063 64.3032 66.4747 -51.7288 -49.8868 -50.6668 0.326318 -9.65292 -12.6905
-11.6746 -21.6507 -24.8399 -57.8058 44.0385 21.8506 22.1442 11.7008 12.0176 12.1908
13.1418 22.0209 44.5019 10.7956 12.4584 11.899 13.2389 -58.6634 -58.6527 -58.124
-58.1113 -57.4738 -56.8498 -56.4858 45.818 66.8296 -58.3184 -58.5717 -58.972 -58.2255
-29.7805 -34.9815 -32.6774 -13.6698 -1.55582 -4.86749 -50.5398 -50.1917 -58.0046 -13.073
0.162001 0.0849469 -13.3012 -58.2798 -56.7922 -51.2467 -12.4235 -10.1635 -3.66904 1.58054
-7.35429 -5.58701 -18.6212 -38.3493 -41.4234 -36.3115 -52.2207 -53.2293 -52.9738 -4.11061
-17.5299 -18.2742 -4.72154 -56.0667 -51.9676 -56.0938 -3.55249 -9.27036 -16.5758 -11.5876
67.5274 46.8656 -54.1925 -54.3488 -56.7692 -56.6621 -56.179 -53.6847 -57.062 -53.1632
-55.9532 -58.953 -59.0844 -59.1272 -32.1616 -77.1038 -96.1254 -101.092 -103.396 -102.961
-48.6733 -50.1522 -54.1885 -48.223 -49.8829 -98.1313 -99.4536 -71.3119 -34.321 -58.4531
-59.2737 -58.9573 -56.278 -57.1575 -57.2296 -57.157 -57.5728 7.12534 6.05485 8.93873
-56.0293 -55.7366 -55.9505 -55.4378 -55.5552 -55.8346 -56.2459 -55.1066 -55.0909 2.01434
1.80675 0.684877 1.19023 4.20374 4.57454 1.34088 -55.8421 -56.3102 -56.9576 5.78032
6.6194 2.76554 0.853419 3.11959 -32.0317 -38.0478 -37.3117 -31.6469 -54.5004 -54.9912
-57.9128 -57.6047 -54.9423 -55.7847 -38.9603 -43.3078 -43.1057 -36.9664 -46.0585 -50.1005
-53.2215 -53.3704 -52.2145 123.576 131.435 146.781 146.869 -58.1181 -56.1845 -56.4566
-57.8207 -57.659 4.46901 2.19837 3.09253 4.67988 -9.75526 -3.9368 -5.89688 -8.93372
-11.8175 -39.1202 -36.8976 -25.6127 -27.3654 -32.1759 -39.1426 -24.8293 -24.8493 31.0911
41.2678 52.1107 37.9216 23.0681 19.2286 34.2274 26.1232 0.668514 0.826643 1.98606
34.0792 24.9031 17.1082 22.2147 2.86287 3.80409 4.45191 4.56354 3.70152 6.66394
6.76967 4.60522 -9.36456 -8.25221 -1.38064 -10.2402 14.6838 9.14505 10.8202 -54.6278
-56.8522 -56.9828 -54.8223 -82.6308 -81.3488 -84.5914 -47.9041 -12.705 -18.3395 -27.6207
-56.023 -52.8315 -55.3562 -56.4451 -74.0413 -73.7716 -58.3684 -59.6215 -49.493 -47.9374
-50.18 -50.3867 3.73475 3.79533 -0.647201 5.99912 5.64967 4.65496 5.32862 5.7374
6.14439 -54.0811 -53.6414 -68.7314 -67.9416 79.0125 94.1115 85.7112 112.114 106.425
88.8446 90.1578 161.854 164.187 153.367 121.633 98.4106 104.349 97.3073 117.647
-12.8596 -26.919 -31.2439 -5.82023 -26.1027 -52.0727 -41.715 -6.29654 93.7114 101.211
86.7954 78.263 96.6915 88.3872 107.596 148.456 158.21 167.401 165.138 106.619
102.895 159.627 -32.586 -7.96975 -38.267 -28.4843 -47.6563 140.204 140.074 115.597
110.577 110.24 115.504 139.599 138.983 108.131 167.233 170.839 172.007 172.299
173.707 186.646 186.835 174.814 173.266 -32.9117 -40.0394 -32.8673 -56.4203 -50.7755
-42.6187 -41.8783 -40.613 -25.5046 2.7925 -2.56408 -0.613462 173.386 175.33 187.187
172.357 186.503 187.147 175.217 172.164 179.593 181.757 170.106 168.874 179.89
167.873 171.09 182.415 -52.6227 -37.8473 -36.5978 -55.7185 -55.7616 -55.8702 -36.3897
-46.2323 -36.4865 -36.9551 -45.8377 -45.8055 -3.3862 -9.24976 -25.1345 -25.1725 -32.8457
-43.4868 -32.8775 -32.579 -42.919 -21.1468 -18.8725 -20.5967 115.413 140.133 138.117
139.027 114.67 109.298 170.03 169.904 170.472 167.735 136.39 108.387 113.565
137.141 -57.1186 -54.1727 -52.8397 -52.6695 -55.6912 -46.1384 90.1784 93.4631 78.7365
-14.9998 -6.2748 -6.80751 -20.9259 54.5087 56.3692 69.9725 73.6305 -55.8579 -55.0882
-55.3898 -55.8507 -57.0326 -57.2718 -57.4175 -57.5281 -56.127 -56.2287 -55.8074 -55.9101
-135.044 -109.456 -77.8776 -95.6726 -98.0371 -99.1292 -99.1215 -83.2199 -78.9615 -92.5305
-70.2547 -84.8692 -132.648 -136.401 -128.432 -96.2052 -96.9853 -54.7719 -54.2218 -54.9224
-56.0366 -56.3291 -53.8512 -53.7706 6.80867 7.34057 13.741 16.3732 13.8366 -50.9209
-50.207 -45.7298 -45.9495 -46.1734 -45.9731 -45.9464 -45.7292 12.9449 12.6783 16.8975
8.25841 8.06293 9.63316 10.1175 10.1433 8.50245 7.3136 8.07692 12.414 15.7485
13.7505 0.780674 -0.856995 -3.04977 7.02487 6.19848 5.07223 6.4175 7.13326 -52.4692
-53.3563 -56.3254 -55.6404 -48.6322 -49.6158 13.6283 15.5962 17.0029 -46.8297 -49.7144
-49.8464 -46.5475 -45.711 11.3588 11.1002 11.1429 9.55001 6.83847 -7.07463 -5.83131
5.4615 6.28334 6.24882 -48.5086 -48.8547 146.507 148.532 140.953 136.989 113.401
118.346 125.752 121.233 184.609 185.885 182.186 178.428 -55.6993 -55.6331 -53.0162
-52.9247 169.633 183.355 185.055 172.991 174.447 186.569 171.025 182.141 169.621
179.275 -16.9106 -19.2131 -23.9713 -28.2822 -26.8659 -22.9869 -8.69967 -3.37619 -3.81112
-8.99808 -14.0212 -13.663 -1.03618 -9.06507 -9.93442 -15.0223 -18.1482 -8.22919 -8.98384
-24.9537 -20.2337 -9.65791 -0.784114 -3.05284 6.07009 -3.44679 6.05291 6.80958 3.35206
3.89007 4.61319 4.17648 7.70883 6.08727 3.92263 5.77919 -18.9096 -16.0009 -26.327
-21.4688 -56.4182 -58.1725 -58.7684 -58.6282 2.99948 3.06945 5.03238 5.51941 4.26864
4.87069 -14.5705 -40.3151 -57.2295 -65.437 -53.2681 -31.9158 -58.9436 10.7295 10.1839
10.2071 -2.51465 0.151271 11.992 17.275 9.5082 23.7573 20.6454 10.4406 1.62738
6.81096 8.31073 13.1333 11.5651 6.77076 -53.4493 -44.0178 -49.897 -13.102 -43.9352
-25.0039 -60.6528 -83.7595 108.768 92.8515 106.257 108.447 112.802 111.948 172.881
172.004 173.256 172.571 171.274 185.963 185.964 185.199 -57.9735 -58.1935 174.481
-56.1845 -56.1828 -57.1215 -57.2873 -56.9917 -55.8252 -149.169 -136.163 -136.066 -132.611
-156.761 -135.986 -132.416 -132.73 -119.486 -115.055 -80.3353 -73.1513 -73.4778 -70.8602
-119.45 -121.155 -56.7671 -55.7536 -54.6485 -57.139 9.5128 7.15022 10.673 8.21831
10.9981 12.026 12.4027 13.3654 14.1599 -55.2596 -54.3389 -56.3134 -55.1145 -53.1602
-52.897 -53.0107 -54.9427 -6.02722 -0.505958 -1.4457 -4.64273 9.17615 9.55166 6.79375
5.8314 7.55564 9.54313 8.77905 6.70172 1.31267 8.15714 7.05192 6.89069 8.66011
10.3871 9.20107 12.042 11.3211 -54.7264 -55.1477 -55.1648 -55.29 -55.4428 -55.2988
-54.8022 -52.7688 -54.0885 -54.0971 -54.1168 -51.0903 -52.4818 -73.7992 -73.0232 -57.6434
-59.9372 -77.5956 -68.4296 -77.642 -124.14 -128.751 -136.377 -79.5409 -97.6037 -107.504
-80.3993 -98.9544 128.782 113.622 148.544 151.766 -54.5957 -53.8097 -54.9348 -54.9247
-53.1235 143.884 167.871 146.144 -49.0156 -48.183 -48.6149 -49.3859 -49.1873 -49.2054
-49.1326 -47.6665 -8.1057 -9.40078 -11.9445 -11.0495 -14.8832 -17.078 -19.233 -17.0051
-17.9395 74.8043 85.4996 -58.6245 51.2163 76.5214 64.9927 75.6638 61.126 14.1188
11.3254 45.679 36.6496 8.33563 9.17568 3.62154 5.28847 5.09765 7.78437 6.70458
7.0727 7.45638 8.26324 -52.7641 -52.3163 -52.0498 -52.6417 -1.06593 -0.550655 -1.12721
2.24072 5.69536 5.13693 7.09334 6.5218 -50.9647 -51.3663 -51.0951 138.215 136.301
171.187 184.781 189.087 189.374 186.864 185.34 -55.7544 -55.4588 -55.7823 -55.6077
-53.1549 -45.6535 -46.4727 -47.0918 -46.3053 -46.6327 -47.9152 -56.0642 -56.0894 -56.6845
-57.3146 -57.0111 -56.9959 -57.1522 -56.764 -55.0803 -115.875 -111.485 -134.499 -110.851
-134.102 -122.29 -123.664 -133.45 -56.1676 -57.4766 -55.9162 -54.5566 13.7058 12.3325
11.3152 12.4954 12.7129 13.3563 -36.771 -36.2684 -31.4709 -30.9174 -41.7594 -42.3066
-46.4807 -46.0826 -51.1337 -51.1831 -45.5723 -52.1752 -51.8163 -6.23424 -0.975475 -11.5172
0.612279 2.05716 8.00241 7.53436 7.86191 4.25887 10.6874 7.3413 8.75958 10.2409
10.8863 10.7817 10.923 12.6942 12.3627 2.33188 12.4319 14.8308 16.0057 3.8633
3.37031 3.10749 3.79018 -58.9708 -58.1107 -52.979 -56.5498 -44.7458 -44.1974 -40.1836
-44.5237 -45.9515 -49.9906 -51.2131 -49.6254 -49.8592 -49.6069 -47.1237 -52.2389 -47.2546
4.17801 -48.3134 -49.6168 141.03 131.845 129.434 129.491 129.871 114.396 106.985
188.663 188.136 187.141 -50.6864 -51.0138 -1.31266 -0.746053 0.287105 -29.6221 -30.5293
186.055 186.891 180.367 183.327 181.873 181.502 -33.2807 -29.1243 -3.07296 -7.71849
-5.83668 -3.11654 -24.7367 -13.583 -10.1613 -13.3623 -19.8058 -4.58137 80.872 56.5135
60.8415 21.0653 21.4311 68.0095 110.7 10.1385 7.17908 -2.29013 -2.54566 6.8374
7.63544 7.92685 6.10683 6.5632 24.5284 16.2869 -0.434023 19.7455 -1.80219 3.46069
8.1719 8.0934 68.0129 110.201 -54.6972 -55.7908 18.105 91.7378 109.086 100.379
92.4214 108.042 109.158 126.572 134.312 143.188 -55.8178 81.8223 73.8446 50.7041
12.5224 18.5824 16.7539 -75.5585 -56.8505 -56.8439 -56.8472 -55.2446 -55.1705 -59.8962
-55.4229 -59.8777 -60.4572 23.4405 -6.55518 5.96921 10.5896 10.823 -1.46214 -1.56833
-2.6858 -55.568 -54.0969 -1.03655 2.52363 2.83446 -57.5356 -56.9698 -56.1238 7.94279
7.63628 4.09193 -56.6206 41.645 49.9696 -65.9144 -58.3404 17.9235 15.4638 8.98347
6.89529 5.0558 8.50783 6.94909 -54.1351 -54.0978 -52.9265 -52.8497 -55.7913 -52.2032
-51.7274 -54.4153 -54.7207 -54.7089 -54.1926 -55.2981 -54.869 -54.7226 -54.4656 4.47529
-51.7181 -57.7726 -56.7364 100.532 129.178 144.732 155.198 168.106 162.942 160.754
148.753 188.246 -52.7934 -53.7263 -51.9105 -7.361 -10.3934 -3.21487 -49.699 -49.7301
-49.6867 -49.9518 -53.15 -47.2833 -48.7873 -47.5683 -47.0961 -47.7925 28.8137 20.2403
-112.366 -119.97 -119.83 -120.47 -120.816 -73.9515 -96.5325 -73.9549 13.3857 17.0357
-10.9991 12.073 11.5147 -5.52738 -7.11137 4.08809 2.46692 0.960894 0.602443 -0.674965
-2.28895 -1.03042 4.1197 4.49687 0.551996 2.80425 4.46937 2.37558 1.28825 13.3157
17.6392 -50.0856 5.49077 12.7788 8.50833 16.5107 8.46855 11.1858 14.2182 15.9959
4.77221 4.97925 6.491 5.90581 -2.13144 -4.0638 -6.32936 -6.22986 4.87767 1.6291
4.35464 9.44979 15.3637 16.5686 8.23465 5.6573 3.01581 2.70009 7.17656 10.6689
11.3271 11.9721 11.1067 5.69665 -3.61157 5.57071 -2.84763 3.17738 -3.62089 2.41984
11.0217 8.34262 12.4043 6.99819 9.49454 11.4207 10.8125 10.5115 7.9657 8.64512
9.16866 9.41837 7.92786 7.37848 7.39919 6.03424 -5.50727 -9.03181 -7.24895 6.51265
5.91707 7.99864 6.2727 -9.26722 -11.0439 1.05999 7.06856 5.88606 -1.71644 5.66793
-136.452 -137.435 -137.741 10.2724 -55.5961 -54.5578 -54.6125 5.23709 9.92333 5.30591
8.38403 10.9843 -55.7546 -55.7146 -55.0958 -54.7935 -60.9552 -60.4634 -60.9579 -68.9951
-116.095 -119.964 -113.781 -120.692 -48.9573 -49.4815 -47.48 -47.1837 -47.4403 -47.1604
-14.6982 -14.6971 -17.1199 -52.565 -52.3816 -52.1437 5.12704 1.486 4.97514 4.94566
-51.9447 -52.3695 -52.4929 141.788 151.134 -55.2574 -50.6755 13.3578 13.9439 11.6025
7.19365 11.472 18.7716 4.20884 3.32339 4.6648 3.66831 -53.262 -57.2474 -57.0577
-55.27 7.76658 15.1093 11.1358 4.08937 4.24166 10.099 8.85165 9.54238 8.64574
10.4318 12.4522 10.2981 5.82379 8.59022 8.23922 -54.1008 -50.139 -48.5412 91.2194
80.2473 84.2133 66.737 72.7233 -4.81225 -2.92993 0.319672 -1.45538 7.62789 8.14345
7.67863 8.27713 8.03071 7.52248 7.07163 116.826 106.789 94.7469 -73.8794 -57.2837
-55.9852 -54.8245 -54.647 -54.274 -54.2536 163.479 139.76 161.888 161.997 7.69562
4.5749 10.6777 11.384 7.19889 8.54067 7.42489 6.90254 6.15236 2.74092 -2.41051
4.75632 5.39965 5.98499 4.36706 6.6755 14.4886 9.07463 -12.9126 15.6507 14.3135
7.6359 10.7567 16.0169 9.15356 -12.7399 -13.6692 -11.7302 -2.89084 -4.93186 -13.2572
7.23964 5.28023 -14.7905 -16.4188 7.18109 4.85055 -1.0564 -3.967 -54.9834 -45.9738
13.1303 1.93406 0.257277 -0.139096 5.99296 5.54826 6.48093 6.07248 6.02905 5.61451
0.31339 6.2888 6.92493 -0.430887 5.73706 4.75448 7.21493 6.7023 6.12504 106.19
86.6554 122.011 123.796 5.20887 4.93413 3.46147 -55.1965 5.13815 6.13141 5.90811
-9.57866 -12.5512 -0.197547 6.28033 6.77756 5.39719 8.078 5.21258 6.89578 3.8964
37.536 -53.1851 -55.1513 -54.6494 -54.6131 -54.6843 -2.91867 -4.29739 -12.6566 -12.5254
-12.5478 -3.4931 9.40713 3.1011 5.96994 7.07954 2.58052 2.36107 0.0763432 -0.899218
-10.9391 -5.22979 -4.126 -11.3216 -4.19534 -12.2071 5.61839 -11.4557 -12.483 -2.48407
1.21624 6.38688 6.39609 5.8248 8.90471 0.259667 6.69518 -3.10657 -1.09684 4.37506
-0.766167 7.27351 4.88717 -9.89421 9.05524 -0.639003 6.1809 1.04364 1.43767 4.83348
5.19136 4.27268 4.98921 3.10268 7.69238 8.94049 5.48438 6.10524 0.972723 3.46666
11.1311 5.53898 0.816786 -0.54894 3.63393 173.161 176.983 176.112 181.026 169.124
168.094 172.674 179.953 180.945 69.8579 74.0364 55.2624 -56.1465 -41.4722 -38.5844
-36.8589 -30.9529 -43.8334 -51.8849 -51.538 -55.296 -46.7885 100.794 154.467 162.107
155.247 146.982 -56.6132 -56.2069 -56.5449 -56.3151 -55.8189 -56.2752 -54.896 -55.2028
-55.0426 4.03821 -0.24702 171.239 -18.3533 186.019 190.266 189.414 -51.2837 -47.2494
182.751 185.882 186.058 -16.3744 -51.0813 85.2557 -55.0002 -55.1306 -55.3861 -55.3535
-49.5023 189.389 -2.33545 189.504 185.524 189.098 7.37957 -64.2804 110.682 109.996
-55.89 4.63452 -51.7193 -53.0326 -51.8325 -137.944 138.726 -54.8485 159.224 -51.9543
-120.896 -120.814 72.2519 6.9783 2.59972 168.08 164.693 -15.42 139.847 191.109
190.004 185.406 189.46 190.793 189.788 172.797 191.164 186.784 189.958 191.199
0.614211 0.60975 0.635047 0.704099 0.917855 1.62134 2.20696 -3.9839 1.35465 0.0245482
-4.09799 -5.86664 0.408899 0.0902452 -0.00177773 0.00504965 0.0100664 0.00544499 0.000862217 -0.000680931
-0.000368521 0.000201449 0.00113372 0.000610767 -54.0876 -52.3618 -134.198 -134.754 -48.0003 -48.451
-49.1058 -47.8422 -48.3352 -49.0327 -49.678 -47.3537 -95.0844 -74.7349 -48.8281 -47.2111
-74.1729 -48.7522 -51.1895 -51.5401 -50.6671 -99.6005 -111.295 -129.685 -119.962 -119.782

U 3 2021 float
20.0062 -0.0457868 -0.215974 20.0438 -0.0307162 -0.0740331 19.929 -0.00643971 -0.0965189 19.9355 -0.0558192
-0.607012 20.0175 -0.0594735 0.0399526 20.0178 -0.0593686 0.0399852 20.168 -0.0783788 0.0574944
20.2327 -0.0865662 0.0655245 20.2783 -0.0915366 0.149208 20.2906 -0.116493 0.263451 20.2096
-0.117735 0.208363 19.9545 -0.0473687 0.0198766 19.9967 -0.0547981 0.0183566 20.0037 -0.0530572
0.00697172 19.853 -0.0246211 0.0177378 19.8518 -0.021396 0.0141999 20.0059 -0.052758 0.00188604
19.8542 -0.0199874 0.00971827 20.0043 -0.051937 0.000506391 19.8533 -0.0183372 0.00881956 20.0026
-0.0511154 -2.51878e-05 19.8519 -0.0167897 0.00851724 20.0011 -0.0503568 -0.000305794 19.8508 -0.0154602
0.00828025 19.9995 -0.0496753 -0.000487743 19.8497 -0.0143041 0.00806083 19.9979 -0.0490217 -0.000614557
19.8486 -0.0132505 0.00786798 19.9962 -0.0483799 -0.000712917 19.8475 -0.0122921 0.00766432 19.9945
-0.0477518 -0.000748393 19.8464 -0.0114135 0.00757033 19.9926 -0.0471035 -0.000838186 19.8454 -0.0104877
0.00728869 19.8449 -0.0100056 0.00698655 19.9923 -0.0468965 -0.000877334 19.9996 -0.00034169 3.13119e-05
20 0 0 20 0 0 19.9996 -0.000341784 7.87714e-05 19.9983
-0.000789039 9.39074e-05 19.9984 -0.000798664 0.000278855 19.9942 -0.00155252 0.000368013 19.9941 -0.00151755
0.000999899 19.9788 -0.00279988 0.000336078 19.9796 -0.0031237 0.00357742 19.9464 -0.00546742 -0.00906168
19.9363 -0.00622043 -0.00796497 19.9389 0.00227581 -0.0143282 19.9277 -0.0054401 -0.0295078 19.9061
0.00524599 -0.0610011 20.2332 -0.0727489 0.00181215 20.0484 -0.0288715 -0.0566484 20.2353 -0.0718374
0.00507551 19.9272 -0.0893071 0.0305889 20.0245 -0.118805 0.0819455 20.2325 -0.0865347 0.065006
19.855 -0.0298379 0.023461 19.3075 0.120095 0.0101114 19.3396 0.117518 0.0112369 19.3676
0.11179 0.0112978 19.3887 0.107504 0.0119855 19.407 0.103723 0.0124909 19.4239 0.100132
0.0126666 19.4399 0.0967374 0.0126707 19.4548 0.0935429 0.0125964 19.4691 0.090498 0.0124534
19.4822 0.087618 0.0123365 19.4969 0.0848052 0.0120515 19.5056 0.083359 0.0117902 20
0 0 19.9996 -0.000342387 0.000137447 19.9985 -0.000797144 0.000490485 19.9946 -0.0015238
0.00171912 19.9801 -0.00324729 0.00603177 19.9198 -0.00876878 0.0107422 19.9195 -0.00793596 0.00101259
19.8499 -0.0165834 -0.0957329 19.7933 -0.0205119 -0.068121 19.9552 -0.0509183 -1.02553 20.4348
-0.0674298 -0.936061 20.2161 -0.053406 -0.509518 19.9303 -0.0558413 -0.636518 20.309 -0.164468
0.452672 20.3093 -0.165358 0.456129 20.0988 -0.250956 0.580567 19.9894 -0.24017 0.300381