# vtk DataFile Version 2.0
sampleSurface
ASCII
DATASET POLYDATA
POINTS 2021 float
-0.500032 0 0.11501 -0.499951 3.38813e-21 0.0392727 -0.789037 8.47033e-21 0.120673 -0.500013 -1.35525e-20
0.193965 1.00003 0 0.0485099 1.00003 0 0.0478584 0.475202 0 0.0353615
0.250044 1.41878e-20 0.0305359 0.2506 -5.42101e-20 0.117067 0.251301 0 0.203885 0.364989
0 0.203772 1.75002 0 0.113255 1.75002 0 0.0564279 2.50001 6.89146e-18
0.059229 2.21354 0 0.250758 2.50001 0 0.252875 3.25001 -3.47927e-17 0.0598775
3.25001 -1.69407e-21 0.253888 4.00001 5.60566e-18 0.0599857 4 0 0.253986 4.75
-1.79088e-17 0.0599988 4.75 8.47033e-22 0.253998 5.5 -2.79246e-17 0.0599999 5.5 -4.23516e-22
0.253999 6.25 1.01187e-17 0.06 6.25 0 0.254 7 2.93732e-17 0.06
7 0 0.254 7.75 -2.65294e-17 0.06 7.75 0 0.254 8.5
1.8923e-17 0.06 8.5 0 0.254 9.25 -2.88552e-17 0.06 9.25 -5.29396e-23
0.254 10 -2.64698e-23 0.254 10 0 0.06 -4.24997 0 0.0599042
-5 0 0.0599861 -5 0 0.253986 -4.24997 0 0.253912 -3.49995
0 0.0593815 -3.49994 0 0.253441 -2.74993 0 0.0570188 -2.74991 0
0.251316 -1.99991 0 0.0492276 -1.99987 0 0.242776 -1.24992 -1.69407e-21 0.03
-1.24985 1.23328e-17 0.222327 -1.24989 3.38813e-21 0.125756 -0.874924 2.08116e-17 0.03 -0.874929
0 0.122356 -0.124951 -8.47033e-22 0.03 -0.499941 0 0.03 -0.124922 -8.47033e-22
0.0385291 1.00021 0 0.231242 0.625368 0 0.203537 0.25004 -2.11758e-22 0.03
1.75003 0 0.247334 1.92873 1.69407e-21 0.441438 2.50001 0 0.447397 3.25
-1.69407e-21 0.447898 4 0 0.447986 4.75 0 0.447997 5.5 -4.23516e-22
0.447999 6.25 4.23516e-22 0.447999 7 0 0.448 7.75 -1.05879e-22 0.448
8.5 0 0.448 9.25 0 0.448 10 -2.64698e-23 0.448 -5
-8.47033e-22 0.447985 -4.24997 0 0.447919 -3.49993 0 0.4475 -2.74988 0
0.445609 -1.9998 6.77626e-21 0.437758 -1.24969 1.61411e-17 0.417681 -1.24976 -6.77626e-21 0.31973
-0.875161 7.70461e-18 0.216228 -0.875403 0 0.312476 -0.499924 -8.74138e-19 0.250039 -0.312433
0 0.250037 -0.312436 0 0.200025 -0.499924 0 0.200026 0.250062 3.38813e-21
0.24921 0.250039 -1.69407e-21 0.250046 0.250032 0 0.300069 0.437526 3.05948e-18 0.300066
0.625026 0 0.30005 1.00072 -8.23994e-18 0.326497 1.00196 0 0.423 1.75013
0 0.439575 1.75013 1.77877e-20 0.448245 1.00135 0 0.537141 1.00002 0
0.61834 1.74999 2.71051e-20 0.633055 2.49999 -3.38813e-21 0.641448 3.25 0 0.641907
4 -1.69407e-21 0.641985 4.75 -8.47033e-22 0.641996 5.5 -4.23516e-22 0.641998 6.25
0 0.641999 7 0 0.641999 7.75 0 0.642 8.5 5.29396e-23
0.642 9.25 -5.29396e-23 0.642 10 0 0.642 -5 0 0.641985
-4.24997 -1.69407e-21 0.641926 -3.49993 0 0.641557 -2.74988 0 0.639897 -1.99989
6.77626e-21 0.63382 -1.25099 2.55465e-18 0.614606 -1.25 -2.71051e-20 0.515981 -0.878244 0
0.50789 -0.875961 2.71051e-20 0.459694 -0.875609 0 0.410432 -0.498432 0 0.400603
-0.498071 -1.70762e-18 0.413126 -0.450805 0 0.413349 -0.45095 0 0.400955 0.250009
1.89735e-19 0.412703 0.25 2.71051e-20 0.425212 0.296872 1.00289e-18 0.425187 0.343754 -2.71051e-20
0.425153 0.343763 0 0.400146 0.250006 0 0.400175 1.00162 1.41488e-17 0.520353
-2 4.23516e-22 0.820145 -2.09502 -2.11758e-22 0.830091 -2 0 0.829497 -1.25123
0 0.813251 -1.25126 0 0.713737 -1.25101 6.77626e-21 0.62198 1.00059 0
0.714169 1.00094 0 0.809205 1.75018 0 0.82775 2.5 0 0.835521
3.25 0 0.835917 4 -1.69407e-21 0.835986 4.75 -8.47033e-22 0.835996 5.5
0 0.835998 6.25 0 0.835999 7 0 0.835999 7.75 0
0.836 8.5 0 0.836 9.25 0 0.836 10 0 0.836
-5 -8.47033e-22 0.835986 -4.24997 0 0.835935 -3.49995 0 0.835616 -2.74991
0 0.83419 -0.970118 0 0.703382 -0.87455 0 0.699864 -0.874264 -2.71051e-20
0.649852 -0.874033 -2.71051e-20 0.599873 -0.49698 0 0.599585 -0.497345 -9.21572e-19 0.612046
-0.450014 0 0.611892 -0.44938 2.71051e-20 0.599454 -2.00002 0 0.84097 -1.84639
-3.38813e-21 1.02215 -1.25185 0 1.01276 -0.896512 -3.38813e-21 0.900668 -0.908183 6.77626e-21
0.801076 -0.904022 -1.86347e-20 1.00093 0.624925 0 0.799916 0.249931 0 0.799891
0.249978 0 0.899916 0.249997 0 0.999939 0.999987 0 0.999957 1.75061
-2.1684e-19 1.02409 2.50003 0 1.0296 3.25 -1.69407e-21 1.02993 4 0
1.02999 4.75 0 1.03 5.5 0 1.03 6.25 2.11758e-22 1.03
7 0 1.03 7.75 0 1.03 8.5 5.29396e-23 1.03 9.25
0 1.03 10 0 1.03 -5 0 1.02999 -4.24998 0
1.02994 -3.49996 -8.47033e-22 1.02968 -2.74996 0 1.02849 -2.00026 0 1.02458
-0.87482 0 0.799893 -0.87491 0 0.899919 -0.49993 0 0.799862 -0.499958
7.6233e-19 0.849889 -0.312476 0 0.849885 -0.312472 0 0.799853 -1.25001 8.04681e-21
1.19601 -0.499979 5.29396e-23 1.10737 -0.731886 2.11758e-22 1.19997 -0.499981 0 1.19997
-0.124987 0 0.999933 -0.477759 -5.29396e-23 0.999933 -0.487556 -1.45584e-22 1.09995 0.250008
0 1.19997 1 0 1.19997 1.7507 0 1.22203 2.50003 -1.35525e-20
1.22368 3.25 0 1.22394 4 0 1.22399 4.75 4.23516e-22 1.224
5.5 0 1.224 6.25 2.11758e-22 1.224 7 0 1.224 7.75
1.05879e-22 1.224 8.5 0 1.224 9.25 0 1.224 10 2.64698e-23
1.224 -5 4.23516e-22 1.22399 -4.24999 -4.23516e-22 1.22395 -3.49998 0 1.22374
-2.75001 0 1.22279 -2.00077 0 1.21965 -1.24997 4.23516e-22 1.19997 -0.499969
-5.29396e-23 0.999933 -0.874942 0 0.999936 -0.499979 -1.32349e-23 1.09995 -2.75001 0
1.36967 -3.18711 4.23516e-22 1.41751 -2.75001 4.23516e-22 1.4171 -2.00072 3.38813e-21 1.29692
-2.00065 0 1.41474 -1.25823 6.35275e-21 1.40014 -0.980416 0 1.39998 -0.499986
0 1.39998 0.250009 0 1.39998 1 0 1.39998 1.75054 0
1.41682 2.50002 -1.35525e-20 1.41776 3.25 0 1.41796 4 4.23516e-22 1.41799
4.75 0 1.418 5.5 0 1.418 6.25 0 1.418 7
0 1.418 7.75 0 1.418 8.5 0 1.418 9.25 0
1.418 10 0 1.418 -5 0 1.41799 -4.24999 0 1.41797
-3.49999 -4.23516e-22 1.41781 -1.24998 0 1.39998 -2.80392 1.32349e-23 1.61143 -2.75
-1.32349e-23 1.6114 -2.0003 0 1.60983 -1.25396 2.64698e-23 1.60004 -1.12789 2.64698e-23
1.59999 -0.49999 1.05879e-22 1.59999 0.250008 0 1.59999 1.00001 4.23516e-22 1.59999
1.75038 0 1.61122 2.50002 0 1.61184 3.25 -4.23516e-22 1.61197 4
-4.23516e-22 1.61199 4.75 0 1.612 5.5 0 1.612 6.25 0
1.612 7 0 1.612 7.75 5.29396e-23 1.612 8.5 2.64698e-23 1.612
9.25 -1.32349e-23 1.612 10 -1.32349e-23 1.612 -5 0 1.61199 -4.24999
0 1.61198 -3.49999 0 1.61187 -1.24999 0 1.59999 -2.75 -1.32349e-23
1.63714 -2.64195 -2.11758e-22 1.80559 -2.00012 -8.47033e-22 1.80492 -1.25741 0 1.80004
-1.19082 -7.94093e-23 1.8 -0.499992 1.05879e-22 1.79999 0.250006 2.11758e-22 1.79999 1
0 1.8 1.75023 0 1.80561 2.50001 3.38813e-21 1.80592 3.25 0
1.80599 4 0 1.806 4.75 2.11758e-22 1.806 5.5 0 1.806
6.25 0 1.806 7 0 1.806 7.75 0 1.806 8.5
2.64698e-23 1.806 9.25 0 1.806 10 0 1.806 -5 0
1.806 -4.25 -2.11758e-22 1.80599 -3.49999 0 1.80594 -2.75 -1.05879e-22 1.8057
-1.24999 0 1.8 -2 -4.76456e-22 1.98532 -1.20969 -1.65436e-23 2 -0.499993
0 2 0.250006 0 2 1 0 2 1.75 0
2 2.5 0 2 3.25 0 2 4 0 2
4.75 -1.05879e-22 2 5.5 0 2 6.25 0 2 7
5.29396e-23 2 7.75 0 2 8.5 0 2 9.25 0
2 10 -1.32349e-23 2 -5 2.21817e-18 2 -4.25 1.05879e-22 2
-3.49999 0 2 -2.74999 0 2 -1.99999 -5.29396e-23 2 -1.24999
3.30872e-24 2 0.0956945 -5.42101e-20 0.203879 0.0632748 0 0.203876 0.0625511 0
0.250042 -0.403589 6.77626e-21 0.40138 -0.405779 7.7927e-19 0.38799 -0.406379 -6.77626e-21 0.375196
-0.499567 -1.35525e-20 0.375265 0.250006 -6.50521e-19 0.375144 0.156247 0 0.375155 0.156237
9.41901e-19 0.400212 0.203129 0 0.400201 0.249796 0 0.59991 0.249852 -1.0842e-19
0.587433 0.202953 0 0.587417 0.202888 6.50521e-19 0.599901 0.625121 -6.77626e-21 0.499953
0.717439 6.77626e-21 0.504955 0.625095 6.77626e-21 0.475379 0.343596 1.0842e-19 0.599918 0.343639
0 0.574939 0.296781 0 0.574964 0.249926 0 0.574977 0.62499 -4.2826e-18
0.549927 0.624917 4.55365e-18 0.599925 0.203133 0 0.412725 -0.449046 0 0.587135
-0.496581 5.42101e-20 0.587161 0.625036 -9.32414e-18 0.40006 0.625067 1.13164e-18 0.450032 0.249704
0 0.624881 0.155871 0 0.599866 0.155839 1.95156e-18 0.624853 0.249886 1.35525e-20
0.749873 0.062411 0 0.749846 0.0624478 -4.26227e-18 0.799869 -0.312472 0 0.749804
-0.499901 -3.38813e-21 0.749824 -0.691227 0 0.30453 -0.499912 3.02221e-18 0.300065 -0.875784
-3.11708e-18 0.361353 -0.592465 -2.71051e-20 0.40036 -0.499854 0 0.350135 -0.687111 1.35525e-20
0.350117 -0.68656 -2.71051e-20 0.40021 0.437526 -1.35525e-20 0.400108 0.437522 6.77626e-21 0.350086
0.250015 -2.51399e-18 0.35011 0.625027 3.38813e-21 0.350064 -0.592287 0 0.425286 -0.498048
0 0.425444 -0.873902 5.42101e-18 0.54992 -0.496663 0 0.574746 -0.591532 0
0.574798 -0.591729 0 0.599734 -0.149108 0 0.406489 -0.149477 -5.29396e-23 0.403592
-0.149678 0 0.406489 -0.451876 -2.1684e-18 0.499977 -0.451579 0 0.487563 -0.498366
0 0.487552 -0.498515 -1.0842e-19 0.499993 0.437553 0 0.450075 0.437532 -6.07153e-18
0.425113 0.254621 -1.25361e-19 0.496697 0.26485 -5.42101e-20 0.498023 0.264831 0 0.496529
0.254636 -2.30393e-19 0.49668 0.570241 0 0.499932 0.437665 -2.71051e-20 0.474991 0.437859
-2.71051e-20 0.49988 0.437372 -1.0842e-19 0.599915 0.249722 3.25261e-19 0.649874 0.43732 -5.42101e-20
0.649899 0.624872 0 0.649914 0.624883 -3.95734e-18 0.699913 0.43734 6.83047e-18 0.699894
0.249817 0 0.699869 -0.592227 0 0.624743 -0.498071 -2.71051e-20 0.624658 -0.499769
6.77626e-21 0.69979 -0.687025 0 0.699824 -0.150854 -1.03677e-18 0.599678 -0.151059 -6.77626e-21
0.605522 -0.127339 6.77626e-21 0.605681 -0.127867 0 0.599582 -0.406139 -4.40457e-20 0.699754
-0.406113 0 0.674749 -0.499634 0 0.674774 -0.18433 -4.23516e-22 0.674527 -0.163626
-4.23516e-22 0.678958 -0.165125 0 0.674537 -0.171868 4.23516e-22 0.674524 -0.14924 3.34737e-19
0.400169 -0.125737 0 0.400165 -0.12551 0 0.393854 -0.149076 -2.11758e-22 0.393877
-0.499925 -2.61564e-18 0.325088 -0.406241 0 0.325087 -0.4062 0 0.300069 -0.124901
0 0.300062 -0.218633 -3.27294e-18 0.299673 -0.218596 1.35525e-20 0.324664 -0.124851 0
0.325085 -0.126061 7.86047e-19 0.406473 -0.0785222 1.30782e-18 0.400166 -0.126118 3.38813e-21 0.41275
-0.0785648 0 0.412729 0.240678 1.0842e-18 0.500153 0.252614 -2.1684e-19 0.498317 0.252386
1.0842e-19 0.496231 0.241035 0 0.496114 0.228892 -1.35525e-20 0.496204 0.228835 6.77626e-21
0.498715 0.229819 2.71051e-20 0.500074 0.25248 0 0.499935 0.240657 -1.6263e-19 0.500957
0.264863 0 0.500154 0.264689 0 0.500951 0.437443 0 0.549896 0.437406
[...]
POINT_DATA 2021
FIELD attributes 2
p 1 2021 float
3.20795 2.54897 3.05909 5.88841 -0.980111 -0.982198 -5.22379 -7.0542 -8.77811 -8.59809 -6.5281
0.756616 0.722432 0.799007 0.828852 0.823649 0.549791 0.525106 0.314383 0.26907 0.147726
0.100563 0.0455134 0.00580218 -0.00915471 -0.0377294 -0.0321431 -0.0491633 -0.0361071 -0.0428603 -0.0307983
-0.0296412 -0.0213764 -0.0140315 0 0 0.737977 0.73277 0.732539 0.737587 0.761863
0.760737 0.842374 0.838933 1.10874 1.10287 1.99458 2.11661 2.14004 2.77188 3.01468
-3.63077 2.46822 -3.66698 -0.396096 -1.79678 -7.04351 0.837234 0.836609 0.787828 0.459531
0.190395 0.0249404 -0.0585689 -0.0877418 -0.0848665 -0.0659243 -0.0428814 -0.0188285 0 0.731912
0.736552 0.757748 0.828686 1.07471 2.2977 2.41112 3.71755 4.57179 9.29502 0.0853065
1.39901 6.13922 -9.25627 -9.26851 -5.17331 -0.417081 0.105194 0.15647 0.659748 0.851848
0.84526 1.03608 1.03862 0.7046 0.695328 0.421639 0.182312 0.0306396 -0.0475652 -0.0755995
-0.0735388 -0.0561681 -0.0347159 -0.0127209 0 0.730942 0.734975 0.753252 0.813588 1.02457
2.15514 2.48338 5.71657 6.26237 5.49552 34.7028 38.8031 54.6771 48.7514 2.05636
2.17626 2.72879 3.39934 2.75411 1.72786 1.0349 0.959576 0.935938 0.956313 1.64444
2.09239 2.1505 0.526957 -0.224022 0.458425 0.572749 0.410834 0.229106 0.0956251 0.0154368
-0.0232138 -0.0342115 -0.0292665 -0.0176707 -0.00446837 0 0.729732 0.733026 0.747765 0.795507
3.6491 4.17827 5.22006 5.27917 35.6223 34.0936 46.4746 52.517 0.951731 0.926377
1.11166 1.91029 2.89892 1.32616 -1.15403 -6.43491 -5.4518 -2.92218 -0.843742 0.187088
0.434478 0.372582 0.238342 0.119646 0.037996 -0.00854092 -0.0286665 -0.0317351 -0.0257129 -0.016006
0 0.728406 0.7309 0.741787 0.775934 0.878404 3.02082 1.94019 5.72477 3.62599
1.18088 0.515596 0.82534 0.395019 0.423659 0.24663 -1.49448 0.848625 0.36452 -1.1346
-0.808235 0.0215847 0.327711 0.320497 0.216119 0.11108 0.0344544 -0.0109052 -0.0310955 -0.0342953
-0.0278691 -0.0174157 0 0.727093 0.728791 0.735786 0.75616 0.803372 0.819144 0.996149
1.34408 0.406913 0.742487 0.733549 0.738072 0.779467 0.743007 0.673337 0.479452 0.135283
-0.697614 -0.693918 -0.0610884 0.256934 0.280017 0.197975 0.1064 0.0374316 -0.00378155 -0.0218907
-0.0242295 -0.017705 -0.00802345 0 0.725916 0.726889 0.730311 0.672563 0.724078 0.723935
0.701439 0.588793 0.513243 0.127817 -0.543491 -0.597013 -0.097296 0.214964 0.255309 0.18771
0.104831 0.0405564 0.00140886 -0.0162955 -0.0192466 -0.0139305 -0.00592053 0 0.724989 0.725375
0.725928 0.588193 0.72275 0.70956 0.677321 0.543067 0.508673 0.122792 -0.460405 -0.539784
-0.112909 0.191174 0.239866 0.179615 0.101143 0.0393054 0.00130444 -0.0160586 -0.0191479 -0.0142203
-0.0066737 0 0.724395 0.724368 0.723001 0.714987 0.541725 0.669812 0.504527 0.121523
-0.433615 -0.521674 -0.118088 0.18325 0.23447 0.176576 0.0996208 0.0387442 0.00133231 -0.0156826
-0.0185791 -0.0135513 -0.00594691 -0.000735628 0.724189 0.724001 0.721924 0.711862 0.669201 0.526277
-12.5789 -13.407 -15.473 74.5767 65.7363 48.7788 32.4701 0.31563 -2.3129 -0.5747
1.23645 2.43963 2.60723 4.32205 3.29061 2.51722 2.15383 2.64911 2.69238 3.79365
2.7778 1.70325 2.98506 2.41435 1.88016 57.9015 40.8752 2.37618 2.78462 1.45541
2.63983 -0.248586 -7.02552 -13.3565 -10.9124 -1.60523 9.23476 7.88554 13.8333 5.52532
18.4069 23.4191 10.0227 11.5129 3.16104 1.53894 -1.25919 1.87582 20.6531 39.0208
6.19025 40.9138 20.9372 19.324 -60.6647 -60.4292 -60.6494 69.9976 70.1322 49.011
46.0231 4.16914 3.8335 0.897706 3.54835 3.2132 0.874029 3.13572 4.70922 4.62565
3.07739 -0.154153 1.53666 1.8098 0.421001 -0.052851 -3.56601 17.3649 29.2522 14.0052
7.57414 -72.7722 -69.3359 -63.0106 -61.8373 15.5659 21.2471 19.5665 -47.598 -45.1422
-47.179 -47.8406 -60.1691 -60.2679 -59.6525 -59.9251 19.111 19.6687 15.2251 -30.9238
-24.3432 -39.4175 -40.3042 -61.2807 -51.3757 -62.065 -53.955 6.9794 5.50764 9.1889
8.97923 5.24936 4.75947 4.6454 5.43317 6.86804 4.04077 4.11455 4.80018 4.15999
4.82648 5.24616 49.0236 69.8092 -64.0022 -75.304 6.13886 6.65552 -45.5585 -46.8183
-63.9185 5.33531 6.74022 6.49245 6.00417 -32.5116 -43.246 -46.9273 -29.0351 66.7664
63.3154 43.9482 43.2918 -49.3589 -58.7804 -16.6956 -14.1406 -4.27475 -31.2165 -49.473
44.2166 45.7092 65.9521 68.142 -49.3374 -45.4789 -45.5203 -2.1917 -11.2897 -15.3615
-14.5164 -24.1651 -27.0984 -62.0724 45.5149 22.678 22.9216 12.6468 13.108 13.0215
14.0546 22.7426 45.6503 11.3852 13.1264 12.6217 14.0408 -63.1852 -63.2889 -63.3514
-63.3312 -60.363 -59.1156 -57.5394 47.6963 69.0557 -62.4459 -64.0641 -63.1636 -62.2467
-35.2758 -41.1538 -39.6723 -21.149 -9.57502 -11.337 -58.7134 -57.9747 -63.259 -21.9747
-8.41515 -8.59287 -21.7111 -63.0652 -63.2657 -57.9614 -20.9888 -18.3959 -12.4092 -6.97399
-6.80457 -4.36194 -13.5531 -29.7781 -32.365 -28.6209 -54.0414 -58.199 -52.0319 -3.23492
-14.2475 -13.4821 -3.61402 -67.5444 -55.2212 -66.1066 -3.51108 -8.37994 -14.3596 -19.7099
69.1659 48.1608 -77.3591 -74.3077 -72.6339 -72.3749 -73.7976 -78.2751 -68.4521 -51.5267
-73.386 -61.4458 -61.521 -61.4356 -30.3286 -71.2426 -84.2024 -88.3364 -97.0082 -97.3599
-48.905 -53.3493 -58.2334 -55.848 -36.049 -75.894 -76.8556 -57.2133 -23.0428 -61.4719
-61.6526 -61.7704 -60.9355 -62.1079 -62.0626 -61.4537 -61.8802 -0.632357 -2.13028 0.746655
-60.529 -60.9092 -61.1825 -59.5834 -59.6881 -69.3414 -67.7833 -78.2096 -78.0973 -2.97372
-2.21796 -4.43621 -5.14347 3.98845 3.8471 1.04319 -69.3393 -67.7839 -67.2244 1.30257
2.25881 0.254659 -0.19341 0.81909 -36.5571 -42.5359 -41.1535 -35.2634 -63.0528 -67.1867
-66.3942 -66.1046 -77.05 -69.5311 -32.4535 -36.0422 -37.321 -31.6772 -53.5412 -60.842
-59.861 -58.1983 -57.6187 120 126.855 142.599 142.698 -63.2941 -60.0277 -58.9503
-62.6077 -62.2738 -4.29782 -6.9374 -6.22029 -3.93518 -8.04407 -3.08665 -1.05835 -4.32117
-6.31618 -28.8706 -31.6103 -20.7329 -18.7853 -22.0179 -28.377 -28.0919 -29.5366 33.8026
45.08 55.7898 39.8375 24.1583 18.4349 36.0321 28.1108 1.08194 1.24209 2.23006
38.4293 28.8737 23.0392 27.9514 -1.29532 -2.38367 -1.34781 -0.0599115 2.63686 5.10422
6.07111 3.73142 -7.6939 -6.18257 -0.226566 -8.3633 14.8821 9.5616 11.3305 -68.2996
-63.3433 -63.4436 -68.3443 -66.6064 -65.9793 -67.7389 -51.8035 -11.1022 -16.8822 -26.011
-58.2978 -57.1731 -60.43 -59.8869 -65.345 -67.5006 -61.1107 -59.4527 -56.2579 -40.7144
-44.2041 -45.0384 2.89278 3.59339 -6.45746 6.52516 6.57752 5.92207 6.75835 5.92496
6.49429 -61.216 -68.0701 -58.5765 -58.7037 82.2419 96.967 89.9606 112.981 107.982
91.5536 92.5084 161.126 162.391 151.764 122.128 100.07 106.078 99.0442 117.765
-18.7195 -32.8951 -36.318 -11.847 -32.3274 -56.9556 -47.4552 -12.1021 93.2935 99.706
87.5802 79.0894 97.3534 89.2247 106.059 144.477 155.589 166.653 166.378 108.489
104.08 155.128 -29.5065 -8.53174 -31.4048 -29.3911 -45.3706 141.726 141.678 116.942
111.618 112.339 117.529 141.331 140.94 110.18 168.922 170.673 173.104 174.266
177.38 191.119 189.495 178.391 176.86 -40.7557 -48.4642 -41.209 -61.8708 -57.5368
-47.987 -45.6498 -44.623 -34.214 -5.80322 -11.1345 -9.06694 177.248 179.814 193.387
175.864 188.452 191.7 179.696 174.209 182.483 187.204 170.799 169.707 175.665
170.507 173.959 185.212 -50.7832 -30.4832 -32.1948 -70.5238 -65.9335 -64.0884 -33.0261
-44.7205 -32.5533 -31.6963 -43.9849 -44.2297 -3.52407 -8.49303 -21.8002 -21.6125 -41.4431
-50.9749 -40.1347 -38.565 -48.969 -28.6911 -24.0899 -26.9611 116.166 141.631 139.567
140.573 116.071 111.126 170.975 171.332 172.605 170.364 137.864 110.5 115.666
138.449 -68.2876 -60.2881 -91.0177 -79.2778 -73.1109 -41.7782 94.6469 98.0929 84.5134
-4.65262 3.81908 -2.03773 -16.0673 60.012 63.0003 76.5643 77.9923 -59.8359 -60.4535
-59.3769 -58.5555 -59.7752 -57.7021 -58.6859 -59.2544 -62.5928 -60.0378 -57.5694 -60.4277
-134.853 -104.044 -78.1491 -83.7199 -85.7846 -81.1618 -81.1609 -66.5989 -67.8433 -75.9181
-59.4932 -79.8619 -112.909 -110.675 -102.426 -76.5991 -77.9168 -59.3639 -57.5005 -58.5268
-60.5495 -61.9038 -57.6501 -56.6902 -1.6338 -1.04075 7.88688 9.07162 8.51002 -54.8712
-53.1959 -48.5347 -49.8414 5.90068 12.2517 13.1236 5.45738 11.4347 13.1522 16.9148
9.62178 9.06507 10.7263 11.0228 11.0973 10.3694 7.98696 8.55154 15.4316 22.0228
22.0597 1.21955 3.32605 1.36831 7.7768 9.99656 8.40265 6.55087 7.59751 -54.4881
-53.4394 -60.8129 -61.2512 -47.3686 -46.7598 7.53703 7.31233 9.05854 -15.799 -73.0034
-77.9048 -7.37975 4.81465 6.2429 5.70251 5.75234 3.68545 -0.118518 -18.14 -13.1517
6.26715 8.96479 10.0645 -47.1402 -45.4284 148.2 150.593 144.11 138.623 116.12
122.357 130.234 125.528 187.67 189.811 183.44 179.8 -58.9955 -57.7883 -52.992
-53.5885 171.277 181.026 182.938 175.708 178.037 186.242 173.094 179.285 171.652
173.322 -13.3186 -11.711 -15.1128 -15.0689 -14.7792 -11.4507 -15.062 -10.5755 -11.7103
-15.8191 -19.6063 -18.7353 1.40653 -8.223 -9.15092 -11.3005 -17.4979 -2.89777 -4.51584
-23.9765 -16.5332 -8.97372 -0.165318 -2.68698 -1.31587 -9.69091 -1.34407 -0.857957 0.0323083
3.47522 5.22881 4.71919 1.37531 0.743405 0.79489 1.27625 -18.2313 -13.8893 -25.7456
-19.8775 -58.8972 -60.1532 -60.6886 -60.902 2.76649 2.22444 5.07443 5.49609 4.24428
4.77696 -8.35854 -31.778 -49.1784 -57.5258 -43.038 -24.0682 -61.3749 17.5031 17.1069
17.2188 -7.75696 -3.88442 9.84179 13.7859 12.4269 24.5218 16.7232 12.1625 -1.86267
5.95462 7.01453 7.36368 5.15583 9.89877 -48.9254 -50.2512 -54.6498 -11.5407 -40.8118
-23.5229 -55.4305 -73.9676 109.965 98.1674 109.105 110.212 116.099 113.397 175.518
174.742 176.366 176.174 173.25 186.122 186.122 184.209 -62.0161 -62.1796 177.751
-60.0276 -60.1012 -59.9571 -59.706 -59.7537 -56.908 -142.603 -122.641 -121.551 -130.64
-154.255 -120.611 -104.064 -104.19 -93.9409 -89.6297 -63.2695 -63.1132 -64.7398 -61.9301
-91.0811 -93.1486 -61.6065 -60.8174 -57.6609 -59.9841 0.846755 -1.24732 2.96914 1.04015
2.84385 4.06406 3.96246 4.71497 5.63739 -59.2843 -57.7363 -67.7627 -78.2108 -94.7677
-91.6697 -92.8396 -80.2729 -14.8223 -7.85792 -9.35563 -12.827 6.05091 6.90967 1.5818
0.478984 4.19812 8.62188 5.18175 2.62319 0.929245 8.71726 6.50284 6.21804 1.71895
3.14463 2.38522 6.03872 4.54363 -58.2994 -59.3513 -139.658 -143.966 -135.821 -115.475
-106.834 -28.9608 -62.5114 -62.6499 -56.3789 -66.5776 -61.6807 -62.1049 -63.9466 -55.9708
-56.1441 -61.9237 -58.262 -77.9562 -120.496 -127.243 -136.46 -65.1226 -79.7509 -93.6924
-64.6892 -81.1411 131.514 117.138 150.611 153.493 -60.1217 -58.2263 -60.6589 -59.6268
-56.9284 145.107 168.925 147.605 -63.8197 -66.8189 -51.8177 -53.2091 -46.3053 -47.4126
-45.7701 -69.7768 0.0282606 0.463066 -3.31697 -3.709 -8.43515 -7.50776 -8.3122 -7.53496
-7.27753 76.1374 86.3934 -47.0901 54.7238 79.1201 67.5645 81.6805 66.2516 13.8682
7.06738 49.7499 41.1388 8.8812 9.7131 0.368687 1.7415 2.33269 7.94469 5.10834
4.91937 5.92344 8.98183 -69.0487 -73.5141 -65.7485 -63.9506 -2.34585 -0.187283 -0.306581
3.21915 7.83485 6.8515 7.25479 8.12643 -68.6507 -68.5018 -64.5104 138.398 137.669
172.81 181.457 186.838 188.652 190.944 182.771 -54.6767 -54.3229 -55.6409 -57.3356
-52.1047 -33.4289 -43.7147 -102.532 -106.975 -113.841 -104.545 -57.8996 -57.8077 -57.6048
-62.4684 -62.6961 -62.9323 -61.4877 -62.3965 -58.3546 -102.075 -96.0604 -116.928 -104.631
-105.816 -94.9858 -97.4183 -105.412 -57.524 -62.266 -60.6456 -57.1745 4.07585 3.13735
2.07392 2.95766 4.36254 4.9652 -40.2989 -39.9256 -34.8491 -33.936 -43.7585 -43.9962
-48.3214 -48.1329 -53.4489 -53.4755 -47.1269 -89.5694 -89.9712 -17.961 -10.4093 -24.3655
3.93023 5.89849 3.79 1.59271 1.31893 2.6372 10.7755 3.23204 6.01925 10.1765
10.3626 11.9494 11.6215 13.9701 12.328 7.57725 13.9579 17.4884 19.0103 13.8516
14.8417 15.3007 14.0928 -61.7386 -61.153 -48.2092 -63.8943 -34.3621 -34.9597 -26.6432
-35.3318 -35.7464 -42.6917 -46.2263 -43.71 -41.7536 -43.6513 -48.7609 -54.2435 -37.494
11.4402 -40.3202 -41.703 144.307 136.157 132.112 134.457 134.82 117.505 107.55
182.761 184.764 180.564 -47.6022 -50.2159 -8.09993 -7.55951 -6.9128 -32.7491 -33.5158
178.112 180.806 176.124 174.423 168.14 173.077 -20.9622 -18.7654 -9.47916 -13.1646
-11.7573 -9.244 -27.0064 -17.955 -14.8315 -17.9897 -23.2682 -3.99146 83.5628 59.1602
62.4687 21.9298 22.1024 70.0392 112.501 17.1276 9.73905 -0.0245998 0.118982 5.07281
5.56512 6.24885 5.24307 4.89942 26.9017 19.1315 1.65937 22.3418 -0.307566 3.52022
6.78743 6.79949 69.5516 111.251 -114.642 -72.9405 20.8321 98.2994 109.718 104.8
97.7371 116.151 113.227 122.789 133.24 139.401 -57.2233 87.1758 78.221 49.97
16.8712 18.1395 16.0346 -75.8666 -61.6047 -61.6042 -61.5862 -60.1671 -60.5512 -59.2435
-59.2388 -58.0444 -58.8142 24.1275 -5.22903 2.06088 5.15864 5.35584 -5.42046 -5.25668
-7.37058 -153.529 -62.7255 -9.01112 -5.51311 -4.30779 -67.4959 -67.6723 -63.517 1.14652
1.17626 0.771076 -67.8879 43.1589 49.0734 -76.6022 -62.6776 10.1479 8.42571 6.49219
2.37557 1.38978 6.60951 3.32338 -68.1048 -71.0712 -56.3397 -52.9329 -68.1703 -69.0259
-69.0579 -60.4266 -59.8935 -60.1948 -61.6533 -60.4005 -59.6171 -59.8416 -60.1478 5.37789
-69.1524 -61.1413 -67.6566 102.687 131.683 143.877 156.571 165.662 163.858 160.635
147.334 194.579 -57.2333 -58.7998 -55.2138 -15.1868 -17.7549 -11.2198 -53.7736 -61.2415
-58.262 -53.8068 -80.1811 -81.345 -73.3794 -70.3387 -113.289 -108.28 39.6635 31.1655
-107.634 -111.554 -113.078 -113.473 -113.557 -68.5554 -78.0929 -68.5753 4.72025 9.59263
-21.8259 6.79783 6.85929 2.07634 2.32717 3.68986 3.97686 3.73276 4.23626 4.63433
4.57591 4.20419 6.53555 12.0262 9.69142 9.41929 10.9557 8.36652 9.05342 4.70818
9.69736 -86.8277 -2.10195 13.999 4.93141 21.8766 21.0915 22.0663 23.7794 25.899
11.2061 9.34052 3.51432 1.91377 -7.19991 -9.58107 -12.8763 -12.8486 -1.57323 1.5054
0.76643 10.0712 11.1896 11.9478 8.64063 -3.23527 -2.54522 -0.693376 -0.532319 3.24453
4.98491 5.4767 4.54282 -3.19686 -8.82551 -3.29697 -9.46382 5.98218 -8.64344 -2.61241
9.08945 7.90317 10.2013 4.95969 6.22564 6.1446 5.35962 5.17673 7.36787 5.98103
6.51453 6.58681 7.55854 6.05493 8.05956 9.60847 -3.12454 -9.27812 -12.0419 5.17421
6.94358 8.51505 2.51912 -19.822 -23.5009 -7.27893 0.0731424 -2.86686 -10.3456 -3.23801
-119.87 -110.568 -108.649 1.80724 -61.132 -57.887 -57.9374 -0.584407 7.23696 1.15537
5.8005 4.2256 -61.7082 -60.9556 -59.6058 -58.1442 -58.6489 -58.4616 -56.7711 -57.899
-102.376 -113.35 -99.723 -111.689 -35.7629 -45.643 -96.7877 -96.9082 -79.1854 -101.272
-4.82902 -4.94371 -6.61879 -76.6288 -75.6751 -72.2812 7.01899 1.50936 7.11794 7.93314
-70.8589 -74.0437 -79.35 146.28 154.604 -55.2689 -47.5161 4.77128 3.71403 7.26078
2.32171 11.2855 25.5399 3.41616 2.48803 1.50304 3.46981 -56.4634 -59.9552 -59.599
-60.0899 9.34426 10.5073 4.56878 6.93528 6.34873 8.57473 5.28223 4.41816 5.75141
4.52449 7.75669 4.87872 5.56105 6.66048 6.77263 -65.0261 -58.0365 -96.3391 97.0652
83.8576 89.3093 70.7688 78.6038 -5.40864 -3.21577 -1.92893 -4.84048 1.68974 2.81804
1.61763 3.81431 3.33186 2.23116 1.73529 116.479 105.697 95.0783 -68.5559 -64.2855
-62.4711 -61.0088 -60.6856 -60.7354 -61.3292 166.725 141.304 164.74 164.17 -0.810651
-4.08272 2.27942 2.88156 1.96907 1.74189 1.90811 2.16032 1.67752 7.90137 0.661439
4.25304 5.32489 5.78387 6.06448 8.22597 11.7952 7.10598 -18.8141 11.6679 24.0025
11.5361 18.6346 12.5542 9.68525 -14.3947 -21.4244 -9.57439 -7.84549 -12.5479 -19.1915
7.28698 -1.81079 -27.584 -31.6601 18.6104 8.84792 -0.366566 -4.24197 -121.692 -80.6194
3.47093 3.861 2.30114 1.8053 4.58461 5.36716 5.3033 4.19517 4.13467 3.99558
5.96714 8.50442 7.86995 4.81942 8.31769 7.82906 7.97664 8.61272 10.0597 116.473
90.6765 126.788 131.818 1.17304 0.719557 -2.16673 -126.936 1.10542 2.20471 1.97022
-9.11167 -11.2137 -3.12374 1.44369 3.2779 -0.725699 1.97563 -1.22977 1.59615 -1.9341
33.3344 -49.1007 -61.1051 -58.456 -60.3002 -56.9678 4.58228 5.02591 -21.7773 -21.4738
-21.4774 -8.41138 21.153 5.18993 12.8118 11.2653 8.52463 9.23738 6.12637 4.23195
-9.89334 -4.63393 -6.70437 -13.3936 -10.3251 -16.9123 -0.117975 -19.3673 -21.3631 -0.530489
3.46 4.99242 5.74113 4.20461 5.35739 6.08338 8.55865 -0.992119 1.05182 6.78375
2.48246 2.86825 0.954403 -8.46081 4.54007 1.25562 4.2668 2.90228 2.7437 6.24182
6.03889 5.3503 6.9072 8.88687 2.78435 4.25147 1.06453 2.49761 3.27259 5.23932
8.7929 0.732964 -3.98945 2.02991 -2.12867 170.752 175.384 174.929 185.339 168.293
164.479 168.599 179.398 181.187 73.0191 77.8481 55.0981 -61.6248 -44.1178 -42.0519
-40.4373 -33.9966 -35.3956 -51.1814 -52.5187 -78.6494 -40.3501 103.642 149.498 156.49
150.453 144.297 -58.5777 -57.368 -59.1919 -58.0102 -58.4775 -57.8101 -59.0845 -59.3313
-59.1865 -5.9857 -8.04305 173.696 -22.7559 187.129 187.499 188.535 -56.7054 -52.9722
189.349 190.374 196.925 -13.9741 -46.7891 86.9494 -60.9319 -60.7446 -59.4842 -60.4225
-43.9827 195.6 -9.7308 182.35 183.917 183.474 -0.00301192 -59.1007 110.262 110.023
-60.9304 3.60598 -54.4465 -57.0255 -55.2559 -112.106 139.927 -58.7519 162.607 -56.0953
-113.696 -113.529 73.0267 2.60456 -2.68157 162.528 159.563 -13.789 141.502 192.251
194.358 195.421 196.915 186.275 189.724 176.768 198.167 192.453 196.42 195.08
0.737999 0.732782 0.76187 0.841452 1.09863 1.97006 2.73753 -3.55164 2.44372 -0.972352
-5.09633 -6.86559 0.69112 0.7847 0.547921 0.317293 0.151161 0.0475411 -0.00918612 -0.0342227
-0.0398894 -0.035746 -0.0269261 -0.00692146 -62.5325 -26.8089 -134.752 -135.443 -70.7478 -53.3616
-43.3568 -74.1438 -54.4539 -36.7733 -50.7134 -68.2316 -77.4569 -68.8065 -29.3094 -92.282
-68.661 -25.5179 -49.8984 -44.1008 -44.2072 -81.4826 -95.32 -127.807 -113.345 -112.892

U 3 2021 float
19.9859 0.0126026 -0.228528 20.024 0.0212878 -0.0825817 19.9148 0.0302278 -0.0967202 19.902 0.0126411
-0.60697 20.0178 0.0103813 0.0320511 20.0181 0.010474 0.0320713 20.1781 0.0115302 0.054023
20.2471 0.0120206 0.0638058 20.2904 0.0181142 0.122731 20.3872 0.0176338 0.289119 20.2949
0.00874156 0.236016 19.9238 0.00109475 0.0117952 19.9843 0.00586501 0.0175262 19.9857 0.00195349
0.00764739 19.7706 -0.00988576 -0.0105899 19.7641 -0.00971591 -0.016067 19.9905 -0.000303572 0.00357411
19.768 -0.009731 -0.0193075 19.9926 -0.00224317 0.00280924 19.7696 -0.00986649 -0.0176933 19.9933
-0.00456683 0.00320534 19.7697 -0.0101829 -0.0144548 19.9934 -0.00661537 0.00389514 19.7692 -0.0104714
-0.0107762 19.9934 -0.00849975 0.00442861 19.7686 -0.0108489 -0.00727743 19.9931 -0.0102569 0.00465782
19.768 -0.0111326 -0.00430495 19.9928 -0.0118627 0.0045414 19.7675 -0.0113132 -0.00217695 19.9927
-0.0134314 0.00419169 19.7671 -0.0114972 -0.000713024 19.9905 -0.0152235 0.00395297 19.7669 -0.0117307
0.000904904 19.7669 -0.011851 0.00187478 19.9885 -0.0160819 0.00373537 19.9995 0.000205353 3.90793e-05
20 0 0 20 0 0 19.9995 0.000195447 0.000102252 19.9981
0.00061763 0.000113792 19.9981 0.000588071 0.000339425 19.9935 0.00110404 0.000392819 19.9934 0.00099853
0.00110134 19.9781 0.00293102 0.00023388 19.9784 0.0027595 0.00384595 19.937 0.0147028 -0.00893149
19.9265 0.00964133 -0.00571281 19.9302 0.0251416 -0.0133926 19.9111 0.0223852 -0.0283398 19.8937
0.0354536 -0.0575346 20.2317 0.0165172 -0.0036395 20.0287 0.0223491 -0.0647075 20.2324 0.0193845
-0.00443021 19.9217 -0.0162827 0.0263406 20.0838 -0.011179 0.113186 20.2468 0.011983 0.0634406
19.781 -0.0101605 -0.00172667 19.1496 -0.0305744 -0.0176878 19.1611 -0.0235808 -0.0201428 19.1709
-0.0187142 -0.0186517 19.1761 -0.0149366 -0.0159829 19.1785 -0.0111281 -0.013254 19.1801 -0.00721301
-0.0106697 19.1815 -0.00330276 -0.00832084 19.183 0.000636911 -0.00628494 19.185 0.00450223 -0.00474167
19.1871 0.00823501 -0.00358571 19.1921 0.0122287 -0.00203118 19.1962 0.0143925 -0.00100716 20
0 0 19.9996 0.000182069 0.000176803 19.9983 0.000541237 0.000590549 19.9939 0.000896146
0.0019433 19.9782 0.00233769 0.00677393 19.9138 0.00561783 0.0133053 19.9108 0.00598481 0.0041675
19.8377 0.0163967 -0.091984 19.7717 0.0103524 -0.0630524 19.9082 0.0350544 -1.0169 20.3217
0.0648707 -0.976904 20.1511 0.0622763 -0.562516 19.8948 0.0133031 -0.63677 20.489 0.0105013
0.541497 20.4909 0.0103528 0.546111 20.259 -0.00853923 0.674274 20.0437 -0.00567503 0.306579
19.7982 -0.0161188 0.112722 19.4701 -0.0345948 0.0210442 17.8688 0.072129 0.0276558 19.1461
-0.0327605 -0.0169199 19.1542 -0.0325194 -0.0162726 17.2376 -0.107201 -0.0999714 18.7616 -0.173377