# vtk DataFile Version 2.0
tracks
ASCII
DATASET POLYDATA
POINTS 2590 float
-1.001 -0.05 0.0011 -0.900789 -0.0500216 0.00109731 -0.800577 -0.0500431 0.00109463 -0.700366 -0.0500645
0.00109196 -0.600155 -0.0500859 0.0010893 -0.499943 -0.0501072 0.00108664 -0.424945 -0.0501112 0.00107894
-0.349947 -0.050152 0.00106883 -0.274949 -0.0501926 0.00105881 -0.19995 -0.0502327 0.00104888 -0.124952
-0.0502724 0.00103905 -0.0499538 -0.0502819 0.00103929 0.0250446 -0.0502908 0.00104802 0.100043 -0.0502997
0.00105684 0.175041 -0.0503087 0.00106572 0.25004 -0.0503178 0.00107468 0.400037 -0.0503118 0.00109078
0.550035 -0.05031 0.001105 0.700032 -0.0503082 0.00111941 0.85003 -0.0503063 0.00113401 1.00003
-0.0503045 0.00114879 1.15003 -0.0503151 0.00115599 1.30002 -0.0503208 0.00116047 1.45002 -0.0503265
0.00116497 1.60002 -0.0503323 0.00116948 1.75002 -0.050338 0.00117401 1.90002 -0.0503466 0.00117688
2.05002 -0.050353 0.00117881 2.20001 -0.0503595 0.00118075 2.35001 -0.050366 0.00118269 2.50001
-0.0503725 0.00118464 2.65001 -0.0503805 0.00118568 2.80001 -0.0503885 0.00118638 2.95001 -0.0503966
0.00118707 3.10001 -0.0504047 0.00118776 3.25001 -0.0504127 0.00118846 3.40001 -0.0504206 0.00118874
3.55001 -0.0504294 0.00118932 3.70001 -0.0504382 0.0011899 3.85001 -0.050447 0.00119048 4.00001
-0.0504558 0.00119106 4.15 -0.0504635 0.00119114 4.3 -0.0504731 0.00119182 4.45 -0.0504827
0.00119249 4.6 -0.0504923 0.00119317 4.75 -0.0505019 0.00119385 4.9 -0.0505095 0.00119384
5.05 -0.0505196 0.00119468 5.2 -0.0505296 0.00119552 5.35 -0.0505397 0.00119636 5.5
-0.0505498 0.0011972 5.65 -0.0505573 0.00119716 5.8 -0.0505677 0.00119816 5.95 -0.0505781
0.00119916 6.1 -0.0505884 0.00120016 6.25 -0.0505988 0.00120116 6.4 -0.0506063 0.00120109
6.55 -0.0506169 0.00120222 6.7 -0.0506275 0.00120336 6.85 -0.0506381 0.0012045 7
-0.0506487 0.00120564 7.15 -0.0506561 0.00120554 7.3 -0.0506668 0.00120679 7.45 -0.0506776
0.00120803 7.6 -0.0506883 0.00120928 7.75 -0.0506991 0.00121053 7.9 -0.0507064 0.00121042
8.05 -0.0507173 0.00121175 8.2 -0.0507281 0.00121309 8.35 -0.050739 0.00121442 8.5
-0.0507499 0.00121576 8.65 -0.0507571 0.00121565 8.8 -0.0507681 0.00121706 8.95 -0.050779
0.00121847 9.1 -0.0507899 0.00121989 9.25 -0.0508009 0.0012213 9.4 -0.0508081 0.00122117
9.55 -0.0508651 0.00122331 9.7 -0.0509735 0.00122618 9.85 -0.0511331 0.0012298 10
-0.0513439 0.00123415 -1.001 -0.05 0.0537316 -0.900807 -0.050106 0.0535765 -0.800614 -0.0502122
0.0533942 -0.700421 -0.0503418 0.0531782 -0.600229 -0.0505024 0.0529266 -0.500035 -0.0506937 0.0526394
-0.425004 -0.0509415 0.052417 -0.349973 -0.0512786 0.0521276 -0.274943 -0.051663 0.0518592 -0.199912
-0.0520812 0.0516331 -0.124879 -0.0524838 0.0514894 -0.0498864 -0.0527504 0.0515262 0.0251065 -0.052971
0.0516919 0.100099 -0.0531869 0.0519261 0.175092 -0.0534122 0.0522085 0.250087 -0.0536327 0.0525259
0.400077 -0.0540197 0.0531613 0.550067 -0.0544042 0.0536763 0.700057 -0.0547475 0.0541425 0.850047
-0.0550494 0.0545597 1.00003 -0.0553179 0.0549273 1.14679 -0.0556863 0.0552055 1.29355 -0.0560232
0.055465 1.44031 -0.0563573 0.0556909 1.58707 -0.0566888 0.0558832 1.70442 -0.0569518 0.0560099
1.71354 -0.056973 0.0560184 1.72266 -0.0569943 0.0560268 1.73178 -0.0570157 0.0560351 1.7409
-0.0570372 0.0560434 1.75002 -0.0570588 0.0560516 1.90002 -0.057416 0.0561848 2.05002 -0.0577687
0.0563007 2.20001 -0.0581177 0.056399 2.35001 -0.0584627 0.0564797 2.50001 -0.0588039 0.0565427
2.65001 -0.0591502 0.0565946 2.80001 -0.0594962 0.0566397 2.95001 -0.0598413 0.0566772 3.10001
-0.0601856 0.056707 3.25001 -0.060529 0.0567291 3.40001 -0.0608735 0.0567461 3.55001 -0.0612192
0.0567625 3.70001 -0.0615635 0.0567767 3.85001 -0.0619062 0.056789 4.00001 -0.0622475 0.0567992
4.15 -0.0625866 0.056807 4.3 -0.0629295 0.0568158 4.45 -0.0632708 0.0568238 4.6
-0.0636107 0.0568311 4.75 -0.0639491 0.0568377 4.9 -0.0642827 0.0568419 5.05 -0.0646217
0.0568481 5.2 -0.0649592 0.0568539 5.35 -0.0652954 0.0568594 5.5 -0.0656303 0.0568644
5.65 -0.0659584 0.0568669 5.8 -0.0662929 0.0568719 5.95 -0.0666262 0.0568767 6.1
-0.0669582 0.0568812 6.25 -0.0672891 0.0568855 6.4 -0.067612 0.0568868 6.55 -0.067942
0.0568912 6.7 -0.0682708 0.0568953 6.85 -0.0685985 0.0568994 7 -0.0689249 0.0569032
7.15 -0.0692427 0.0569038 7.3 -0.0695681 0.0569077 7.45 -0.0698923 0.0569116 7.6
-0.0702154 0.0569153 7.75 -0.0705373 0.0569188 7.9 -0.07085 0.0569189 8.05 -0.0711707
0.0569226 8.2 -0.0714903 0.0569263 8.35 -0.0718088 0.0569299 8.5 -0.0721261 0.0569336
8.65 -0.0724337 0.0569335 8.8 -0.0727497 0.0569372 8.95 -0.0730645 0.0569408 9.1
-0.0733782 0.0569443 9.25 -0.0736907 0.0569477 9.4 -0.0739932 0.0569471 9.55 -0.0743048
0.0569506 9.7 -0.0746158 0.056954 9.85 -0.0749264 0.0569575 10 -0.0752364 0.0569608
-1.001 -0.05 0.106363 -0.900818 -0.0500779 0.106138 -0.800636 -0.0501535 0.105866 -0.700455
-0.0502558 0.105547 -0.600274 -0.0504282 0.105005 -0.50009 -0.0506704 0.104243 -0.424996 -0.0509572
0.103658 -0.349901 -0.0513052 0.103052 -0.274807 -0.0516576 0.102515 -0.199711 -0.0519556 0.102086
-0.124607 -0.0522979 0.101984 -0.0496047 -0.0525461 0.102097 0.0253974 -0.0527396 0.102327 0.100399
-0.0529202 0.102638 0.175401 -0.0531212 0.103035 0.250411 -0.0533423 0.103517 0.400346 -0.0537496
0.104516 0.550283 -0.0541553 0.105388 0.70022 -0.0545221 0.106172 0.850157 -0.0548581 0.106789
1.00009 -0.0551631 0.10724 1.15007 -0.0556035 0.107505 1.30006 -0.0559 0.107802 1.45005
-0.0561455 0.108078 1.60003 -0.056385 0.108322 1.75002 -0.0566185 0.108532 1.90002 -0.0569259
0.108677 2.05002 -0.0571701 0.108832 2.20001 -0.0574084 0.108972 2.35001 -0.0576441 0.109093
2.50001 -0.0578773 0.109198 2.65001 -0.0581669 0.109268 2.80001 -0.0584145 0.109335 2.95001
-0.0586609 0.109395 3.10001 -0.0589066 0.109448 3.25001 -0.0591515 0.109493 3.40001 -0.0594394
0.109527 3.55001 -0.0596909 0.109561 3.70001 -0.0599405 0.109592 3.85001 -0.0601885 0.109621
4 -0.060435 0.109648 4.15 -0.0607167 0.109674 4.3 -0.0609682 0.109695 4.45
-0.0612178 0.109716 4.6 -0.0614659 0.109736 4.75 -0.0617125 0.109755 4.9 -0.0619878
0.109777 5.05 -0.0622373 0.109792 5.2 -0.0624852 0.109807 5.35 -0.0627317 0.109821
5.5 -0.0629767 0.109835 5.65 -0.0632457 0.109856 5.8 -0.0634927 0.109867 5.95
-0.0637382 0.109878 6.1 -0.0639825 0.109888 6.25 -0.0642255 0.109898 6.4 -0.0644885
0.109917 6.55 -0.0647326 0.109925 6.7 -0.0649754 0.109933 6.85 -0.065217 0.10994
7 -0.0654574 0.109947 7.15 -0.0657146 0.109966 7.3 -0.0659556 0.109971 7.45
-0.0661954 0.109977 7.6 -0.066434 0.109982 7.75 -0.0666714 0.109987 7.9 -0.0669229
0.110005 8.05 -0.0671607 0.110008 8.2 -0.0673973 0.110012 8.35 -0.0676327 0.110015
8.5 -0.067867 0.110019 8.65 -0.0681131 0.110036 8.8 -0.0683474 0.110039 8.95
-0.0685804 0.110041 9.1 -0.0688123 0.110043 9.25 -0.069043 0.110045 9.4 -0.0692834
0.110062 9.55 -0.0695145 0.110063 9.7 -0.0697449 0.110064 9.85 -0.0699749 0.110065
10 -0.0702044 0.110065 -1.001 -0.05 0.158995 -0.900796 -0.0500884 0.15877 -0.800593
-0.0501927 0.158424 -0.700392 -0.0503541 0.157688 -0.600196 -0.0505854 0.156475 -0.499992 -0.0508784
0.154635 -0.42472 -0.0514856 0.153032 -0.349436 -0.0519529 0.152111 -0.274149 -0.0523493 0.151548
-0.198859 -0.0527439 0.151255 -0.123699 -0.0530609 0.151308 -0.0487805 -0.0531836 0.151471 0.0261371
-0.0532619 0.151951 0.101053 -0.0534016 0.152656 0.175968 -0.0535681 0.153453 0.250944 -0.0537219
0.154281 0.400783 -0.0539334 0.155701 0.550624 -0.0544397 0.156878 0.700468 -0.0549111 0.157632
0.850313 -0.0553086 0.158231 1.00014 -0.0556748 0.158662 1.15012 -0.0561773 0.158908 1.30009
-0.0565352 0.159186 1.45007 -0.0568 0.159454 1.60005 -0.0569879 0.159709 1.75002 -0.0571699
0.159931 1.90002 -0.0574268 0.160086 2.05002 -0.0576199 0.160252 2.20002 -0.0578009 0.160404
2.35001 -0.0579731 0.160541 2.50001 -0.0581429 0.160661 2.65001 -0.0583695 0.160745 2.80001
-0.058554 0.160827 2.95001 -0.0587363 0.160902 3.10001 -0.0589169 0.16097 3.25001 -0.0590969
0.161031 3.40001 -0.0593199 0.161081 3.55001 -0.0595066 0.16113 3.70001 -0.0596905 0.161178
3.85001 -0.0598722 0.161224 4 -0.0600523 0.161268 4.15 -0.0602676 0.16131 4.3
-0.0604529 0.161348 4.45 -0.0606356 0.161386 4.6 -0.0608161 0.161422 4.75 -0.0609951
0.161459 4.9 -0.0612026 0.161498 5.05 -0.0613847 0.161531 5.2 -0.0615645 0.161563
5.35 -0.0617424 0.161594 5.5 -0.061919 0.161625 5.65 -0.0621191 0.161663 5.8
-0.0622976 0.161691 5.95 -0.0624742 0.161719 6.1 -0.0626491 0.161747 6.25 -0.0628228
0.161774 6.4 -0.063016 0.161811 6.55 -0.0631908 0.161836 6.7 -0.0633639 0.161861
6.85 -0.0635354 0.161885 7 -0.0637058 0.16191 7.15 -0.0638924 0.161945 7.3
-0.0640635 0.161968 7.45 -0.0642329 0.161991 7.6 -0.0644009 0.162013 7.75 -0.0645677
0.162035 7.9 -0.0647482 0.162069 8.05 -0.0649154 0.16209 8.2 -0.0650811 0.162111
8.35 -0.0652454 0.162131 8.5 -0.0654087 0.162152 8.65 -0.0655833 0.162186 8.8
-0.0657465 0.162206 8.95 -0.0659082 0.162225 9.1 -0.0660685 0.162244 9.25 -0.0662277
0.162263 9.4 -0.0663961 0.162295 9.55 -0.0665556 0.162313 9.7 -0.0667143 0.162331
9.85 -0.0668722 0.162348 10 -0.0670296 0.162365 -1.001 -0.05 0.211626 -0.947632
-0.0500805 0.211469 -0.894264 -0.0501655 0.211279 -0.840896 -0.0502551 0.211054 -0.787528 -0.0503894
0.210764 -0.724313 -0.0506331 0.210286 -0.679436 -0.0509108 0.209635 -0.634563 -0.0512458 0.208756
-0.589694 -0.0515847 0.207741 -0.544827 -0.0519286 0.206587 -0.499928 -0.0522787 0.205293 -0.469452
-0.0525726 0.20424 -0.438977 -0.0528767 0.203124 -0.408498 -0.0531652 0.202135 -0.378015 -0.0534394
0.201267 -0.329813 -0.0538575 0.200029 -0.28881 -0.0541973 0.199121 -0.247804 -0.0545368 0.198429
-0.206793 -0.0548805 0.198051 -0.16578 -0.0551889 0.19796 -0.124884 -0.0554225 0.198133 -0.0496124
-0.0557281 0.198845 0.0256572 -0.0558651 0.199794 0.100922 -0.0559742 0.201075 0.176185 -0.056117
0.202434 0.251487 -0.056253 0.203587 0.251908 -0.0562537 0.203593 0.25233 -0.0562543 0.203598
0.252751 -0.0562549 0.203604 0.253172 -0.0562556 0.203609 0.253596 -0.0562562 0.203615 0.327931
[...]
POINT_DATA 2590
FIELD attributes 4
age 1 2590 float
0 0.00501121 0.0100224 0.0150336 0.0200448 0.025056 0.0288056 0.0325533 0.036301 0.0400488 0.0437965
0.0475449 0.0512905 0.0550361 0.0587817 0.0625272 0.070024 0.0775229 0.0850219 0.0925209 0.10002
0.10752 0.115019 0.122519 0.130019 0.137519 0.145019 0.152519 0.160019 0.167518 0.175018
0.182518 0.190018 0.197517 0.205017 0.212517 0.220017 0.227516 0.235016 0.242516 0.250015
0.257515 0.265015 0.272515 0.280015 0.287514 0.295014 0.302514 0.310014 0.317513 0.325013
0.332513 0.340013 0.347512 0.355012 0.362512 0.370012 0.377512 0.385011 0.392511 0.400011
0.407511 0.415011 0.42251 0.43001 0.43751 0.44501 0.45251 0.460009 0.467509 0.475009
0.482509 0.490009 0.497508 0.505008 0.512508 0.520008 0.527507 0.535005 0.542503 0.55
0 0.00502602 0.0100533 0.0150747 0.0200879 0.0250929 0.028832 0.0325652 0.0362916 0.0400113
0.0437247 0.0474309 0.0511301 0.0548276 0.0585249 0.062224 0.0696348 0.0770708 0.0845216 0.0919872
0.0994674 0.1068 0.114133 0.121467 0.128803 0.13467 0.135126 0.135582 0.136038 0.136494
0.13695 0.144451 0.15195 0.15945 0.166949 0.174447 0.181945 0.189442 0.19694 0.204437
0.211934 0.219431 0.226928 0.234425 0.241922 0.249419 0.256917 0.264414 0.271912 0.27941
0.286907 0.294406 0.301904 0.309402 0.3169 0.324398 0.331897 0.339396 0.346894 0.354393
0.361892 0.369391 0.37689 0.384389 0.391888 0.399387 0.406887 0.414387 0.421886 0.429386
0.436885 0.444386 0.451886 0.459386 0.466886 0.474386 0.481887 0.489388 0.496888 0.504389
0.51189 0.519391 0.526892 0.534393 0.541894 0.549395 0 0.00502801 0.0100578 0.0150819
0.0200994 0.0251105 0.0288575 0.0325975 0.0363282 0.0400541 0.0437702 0.0474749 0.0511739 0.0548717
0.0585686 0.0622651 0.0696634 0.0770889 0.0845324 0.091998 0.0994853 0.106988 0.114493 0.122
0.129509 0.137018 0.144533 0.152042 0.15955 0.167058 0.174565 0.182078 0.189583 0.197089
0.204594 0.212099 0.219611 0.227116 0.234621 0.242126 0.249631 0.257143 0.264648 0.272154
0.279659 0.287165 0.294678 0.302184 0.309689 0.317195 0.324701 0.332215 0.339721 0.347227
0.354733 0.36224 0.369753 0.37726 0.384766 0.392273 0.39978 0.407294 0.414801 0.422308
0.429815 0.437322 0.444837 0.452344 0.459851 0.467359 0.474866 0.482381 0.489889 0.497397
0.504905 0.512413 0.519928 0.527437 0.534945 0.542453 0.549961 0 0.00503012 0.0100663
0.0150996 0.020127 0.0251496 0.0289153 0.0326692 0.0364111 0.0401427 0.0438575 0.0475524 0.051242
0.0549305 0.0586182 0.0623094 0.0696966 0.07712 0.084574 0.0920445 0.0995362 0.107048 0.114562
0.12208 0.129602 0.137126 0.144655 0.152178 0.159701 0.167224 0.174746 0.182274 0.189795
0.197315 0.204836 0.212356 0.219883 0.227403 0.234923 0.242443 0.249964 0.257491 0.265011
0.272532 0.280053 0.287574 0.295102 0.302623 0.310144 0.317665 0.325186 0.332714 0.340236
0.347757 0.355279 0.3628 0.370329 0.377851 0.385373 0.392895 0.400417 0.407946 0.415468
0.42299 0.430513 0.438035 0.445565 0.453087 0.46061 0.468133 0.475656 0.483186 0.490709
0.498232 0.505755 0.513278 0.520809 0.528332 0.535856 0.543379 0.550903 0 0.00268274
0.00536717 0.00805328 0.0107388 0.0139177 0.0161729 0.0184278 0.0206819 0.0229352 0.0251894 0.0267171
0.0282428 0.0297656 0.0312854 0.0336831 0.0357149 0.0377409 0.0397615 0.0417766 0.0437802 0.0474589
0.0511391 0.0548205 0.0585084 0.0622092 0.0622299 0.0622507 0.0622714 0.0622922 0.0623131 0.065975
0.0696469 0.0733287 0.0770207 0.0807227 0.0813131 0.0819036 0.0824941 0.0830847 0.0836609 0.0868196
0.089981 0.0931449 0.0963115 0.09948 0.107001 0.114523 0.122049 0.129581 0.137118 0.144661
0.152198 0.159734 0.167271 0.174807 0.18235 0.189885 0.197421 0.204955 0.21249 0.220032
0.227566 0.235101 0.242636 0.250171 0.257713 0.265248 0.272783 0.280318 0.287854 0.295396
0.302932 0.310467 0.318003 0.325539 0.333082 0.340618 0.348154 0.35569 0.363226 0.37077
0.378306 0.385843 0.393379 0.400916 0.40846 0.415996 0.423533 0.43107 0.438607 0.446152
0.453689 0.461226 0.468764 0.476301 0.483846 0.491384 0.498921 0.506459 0.513997 0.521542
0.52908 0.536618 0.544157 0.551695 0 0.00126444 0.00252926 0.00379477 0.00506107 0.0063282
0.0101157 0.0139116 0.0177191 0.0215332 0.0253297 0.0269111 0.0284822 0.0300466 0.0316037 0.0329929
0.0333207 0.0336482 0.0339754 0.0343024 0.0346292 0.0364575 0.0382786 0.0400909 0.0418978 0.0436954
0.0454959 0.0473011 0.0491182 0.0509403 0.0527665 0.0529168 0.0530671 0.0532174 0.0533678 0.0535254
0.055205 0.0568873 0.0585724 0.0602604 0.0619511 0.065647 0.0693597 0.0730905 0.0768321 0.0805826
0.0843461 0.0881088 0.0918722 0.0956383 0.0994067 0.106942 0.11448 0.122022 0.129568 0.137118
0.144683 0.152236 0.159788 0.167341 0.174894 0.182454 0.190005 0.197557 0.205108 0.212659
0.220217 0.227768 0.235319 0.24287 0.250421 0.25798 0.265531 0.273082 0.280633 0.288185
0.295744 0.303295 0.310847 0.318399 0.325951 0.33351 0.341062 0.348614 0.356166 0.363718
0.371278 0.37883 0.386382 0.393935 0.401487 0.409048 0.4166 0.424153 0.431706 0.439259
0.446819 0.454372 0.461925 0.469478 0.477031 0.484592 0.492146 0.499699 0.507252 0.514806
0.522367 0.529921 0.537474 0.545028 0.552581 0 0.00126545 0.00253141 0.00379788 0.00506487
0.0063324 0.00822678 0.0101235 0.0120228 0.0139248 0.015829 0.0177465 0.0196688 0.0215921 0.0235186
0.0254574 0.0264285 0.027397 0.0283611 0.0293208 0.0302803 0.0307554 0.0312289 0.0317004 0.0321698
0.0326825 0.0331386 0.0335926 0.0340446 0.0344946 0.0349421 0.0358526 0.0367597 0.0376628 0.0385616
0.0394515 0.0403407 0.0412284 0.0421154 0.0430021 0.0438893 0.0452411 0.0465997 0.0479653 0.0493121
0.0528839 0.0547128 0.0565554 0.0584094 0.0602701 0.0621315 0.0640027 0.0658752 0.0677497 0.0696269
0.0715082 0.0733968 0.0752798 0.0771591 0.0790401 0.0809263 0.0840542 0.0871863 0.09032 0.0934554
0.0961052 0.0968678 0.0976304 0.0983933 0.0991563 0.0999194 0.107512 0.115107 0.122706 0.130309
0.137916 0.145548 0.153155 0.160757 0.168359 0.17596 0.183581 0.19118 0.198778 0.206376
0.213973 0.22159 0.229186 0.236782 0.244378 0.251975 0.259589 0.267186 0.274781 0.282377
0.289973 0.297586 0.305182 0.312777 0.320372 0.327968 0.335579 0.343175 0.350769 0.358364
0.36596 0.37357 0.381165 0.38876 0.396354 0.403949 0.411558 0.419153 0.426747 0.434342
0.441936 0.449544 0.457138 0.464732 0.472326 0.47992 0.487527 0.495121 0.502715 0.510308
0.517902 0.525507 0.533101 0.540694 0.548287 0.555881 0 0.00126279 0.00252624 0.00379073
0.0050564 0.00632325 0.00823328 0.0101453 0.0120611 0.0139802 0.0159046 0.0178219 0.0197522 0.0216952
0.0236511 0.0256293 0.0266292 0.02763 0.0286312 0.0296315 0.0306438 0.0308911 0.0311384 0.0313854
0.0316304 0.0318203 0.0325712 0.0333096 0.034035 0.0347467 0.0354503 0.0358973 0.0363426 0.0367864
0.0372287 0.037665 0.0381024 0.0385369 0.038969 0.0394004 0.0398293 0.0402612 0.040693 0.041125
0.0415576 0.0419927 0.042428 0.0428627 0.0432978 0.0437337 0.044172 0.0450486 0.0459345 0.0468307
0.0477382 0.0486628 0.0494073 0.0501507 0.0508965 0.0516456 0.0525665 0.052723 0.0528795 0.0530362
0.0531929 0.0533497 0.0543029 0.0552547 0.0562086 0.0571653 0.0581242 0.0590921 0.0600592 0.0610273
0.0619983 0.0629711 0.0649381 0.0668998 0.0688563 0.0708171 0.0727617 0.0746927 0.0766381 0.078598
0.0805623 0.0825317 0.0864918 0.0904435 0.0943692 0.0982795 0.102193 0.11002 0.117814 0.125538
0.133203 0.140871 0.148569 0.156245 0.163917 0.171584 0.179249 0.18693 0.194594 0.202255
0.209915 0.217574 0.225248 0.232907 0.240565 0.248221 0.255877 0.263546 0.271202 0.278857
0.286511 0.294165 0.301831 0.309484 0.317137 0.324789 0.332441 0.340103 0.347754 0.355405
0.363055 0.370704 0.378363 0.386013 0.393661 0.401309 0.408957 0.416613 0.42426 0.431907
0.439553 0.447199 0.454852 0.462497 0.470142 0.477786 0.48543 0.493081 0.500724 0.508367
0.516009 0.523651 0.531298 0.53894 0.546581 0.554222 0.561862 0 0.00126441 0.00252947
0.00379518 0.00506153 0.00632913 0.00824617 0.0101656 0.0120884 0.0140174 0.0159586 0.0169287 0.0179016
0.0188778 0.0198571 0.0208395 0.0218272 0.0228229 0.0238276 0.0248414 0.0258655 0.0263831 0.0269025
0.0274255 0.0279522 0.0284852 0.0287759 0.0290679 0.0293623 0.0296594 0.0297572 0.030057 0.0303582
0.0306603 0.0309621 0.0312723 0.0313689 0.0314654 0.0315622 0.0316592 0.03173 0.0317654 0.0318007
0.0318361 0.0318714 0.031905 0.0320683 0.0322313 0.0323943 0.032557 0.0327211 0.0329001 0.0330787
0.0332568 0.033432 0.0335612 0.0336666 0.0337715 0.0338757 0.0339791 0.0340839 0.0341943 0.0343031
0.0344105 0.0345168 0.0346038 0.0346584 0.0347126 0.0347665 0.0348202 0.0348725 0.0349702 0.0350675
0.0351643 0.0352606 0.0353548 0.0354766 0.035597 0.0357159 0.0358337 0.0360251 0.036126 0.0362265
0.0363266 0.0364266 0.0365166 0.0366049 0.0366934 0.0367819 0.0368702 0.0370348 0.0371539 0.0372728
0.0373915 0.03751 0.037627 0.0378456 0.0380627 0.0382797 0.0384974 0.0387115 0.0389293 0.0391464
0.0393639 0.0395819 0.0397997 0.0400204 0.0402394 0.0404586 0.0406782 0.0408985 0.0411186 0.0413383
0.0415584 0.0417793 0.0420026 0.0422271 0.0424498 0.0426727 0.0428963 0.0431208 0.0434535 0.0437878
0.0441276 0.0444733 0.0446329 0.0447966 0.0449608 0.0451253 0.0452902 0.0454563 0.0459443 0.0464246
0.0469053 0.0473812 0.0478787 0.0483966 0.0489043 0.0494134 0.0499272 0.0504485 0.0505092 0.05057
0.0506309 0.050692 0.0507519 0.0517695 0.0528298 0.0539359 0.0550032 0.0560835 0.0572889 0.0584726
0.0596588 0.0608509 0.0620428 0.0624179 0.0627922 0.0631664 0.0635408 0.063959 0.0647936 0.0656195
0.0664439 0.0672707 0.0680962 0.0681533 0.0682104 0.0682675 0.0683244 0.0683811 0.0695252 0.0706544
0.0717817 0.0729068 0.0740252 0.075179 0.0763551 0.0775348 0.0787158 0.0798996 0.0812461 0.0825935
0.0839468 0.0853052 0.0869739 0.0878675 0.0887566 0.0896412 0.0905215 0.0913966 0.0959116 0.100401
0.104817 0.109139 0.113331 0.12151 0.129626 0.13767 0.145641 0.153528 0.161288 0.169049
0.176807 0.184562 0.192314 0.200063 0.207812 0.215559 0.223304 0.231046 0.236871 0.242695
0.248518 0.25434 0.260239 0.262139 0.264038 0.265937 0.267837 0.269736 0.277469 0.285205
0.29294 0.300675 0.308411 0.316137 0.323872 0.331607 0.339342 0.347077 0.354796 0.36253
0.370265 0.378 0.385734 0.393447 0.40118 0.408914 0.416648 0.424382 0.432089 0.439822
0.447555 0.455288 0.463021 0.470722 0.478454 0.486186 0.493918 0.50165 0.509345 0.517076
0.524807 0.532537 0.540268 0.547957 0.555686 0.563414 0.571143 0.578873 0 0.00125411
0.00250915 0.00376552 0.00502332 0.0062827 0.008214 0.010148 0.0120848 0.0140286 0.0159867 0.0169594
0.017936 0.0189166 0.0199013 0.0208901 0.0218845 0.0228897 0.0239066 0.0249353 0.025977 0.0265056
0.0270374 0.0275759 0.0281213 0.0286755 0.029241 0.0298143 0.0304005 0.0310007 0.0316274 0.0319463
0.0322651 0.0325846 0.0329051 0.0332401 0.0333117 0.0333832 0.0334548 0.0335264 0.0335847 0.0336607
0.0337352 0.0338089 0.033882 0.0339437 0.0341151 0.0342832 0.034448 0.0346094 0.0347762 0.0349187
0.0350586 0.0351958 0.0353297 0.035449 0.0355693 0.035689 0.0358083 0.0359259 0.0360377 0.036155
0.0362692 0.0363805 0.0364912 0.0366376 0.0367446 0.0368514 0.036958 0.0370644 0.0371621 0.0373582
0.0375545 0.037754 0.0379566 0.0383811 0.0386152 0.0388498 0.0390824 0.0393129 0.0395387 0.0400019
0.0404591 0.0409128 0.0413634 0.0418094 0.0422662 0.0427086 0.0431544 0.0436033 0.0440552 0.0445289
0.0449965 0.0454757 0.0459596 0.0464513 0.0473032 0.0481747 0.0490597 0.0499315 0.0517907 0.0529141
0.054039 0.0551876 0.0563563 0.0575585 0.0588181 0.0600504 0.0612658 0.0624907 0.0637211 0.0646064
0.0654793 0.0663515 0.0672185 0.0683556 0.0686696 0.0689837 0.069298 0.0696128 0.069928 0.0706431
0.071359 0.0720754 0.0727928 0.0736606 0.0741584 0.0746559 0.0751532 0.0756493 0.076143 0.0773851
0.0786312 0.079885 0.0811394 0.0823933 0.0848829 0.0873763 0.0898393 0.0922596 0.0946538 0.0994859
0.10427 0.108915 0.113423 0.117779 0.121424 0.125057 0.128675 0.132279 0.13679 0.14128
0.145717 0.150101 0.154434 0.158716 0.166476 0.174244 0.182011 0.189777 0.197542 0.205286
0.21305 0.220813 0.228575 0.236337 0.24407 0.251831 0.259591 0.267351 0.275112 0.282837
0.290596 0.298355 0.306114 0.313874 0.321591 0.329349 0.337108 0.344866 0.352624 0.360336
0.368092 0.37585 0.383607 0.391364 0.399069 0.406825 0.41458 0.422336 0.430092 0.437792
0.445546 0.4533 0.461054 0.468809 0.476503 0.484255 0.492008 0.49976 0.507513 0.515202
0.522953 0.530703 0.538454 0.546205 0.553888 0.561635 0.569383 0.577131 0.584879 0
0.00125903 0.00251873 0.00377911 0.00504092 0.00630437 0.00823304 0.0101646 0.0120992 0.0140411 0.0159972
0.0169701 0.017947 0.0189281 0.0199134 0.0209029 0.0218974 0.0229025 0.0239192 0.0249477 0.0259892
0.0265182 0.02705 0.0275877 0.028132 0.0286856 0.0292486 0.0298192 0.0303994 0.0309921 0.0316143
0.0319304 0.0322472 0.0325644 0.0328816 0.0332113 0.0334493 0.0336859 0.0339206 0.0341492 0.0342459
0.0343495 0.034452 0.0345535 0.0346539 0.0347569 0.0349582 0.0351527 0.0353405 0.0355225 0.0356771
0.0357556 0.0358339 0.0359114 0.035988 0.0360644 0.0360663 0.0360682 0.0360702 0.0360721 0.036074
0.0362178 0.0363601 0.0365011 0.0366408 0.0368444 0.0369205 0.0369965 0.0370723 0.0371481 0.0372199
0.0376778 0.0381407 0.038617 0.0391009 0.0395145 0.0399756 0.0404259 0.0408748 0.0413258 0.0417849
0.0422605 0.0427263 0.0431888 0.0436536 0.0441278 0.0446192 0.0451014 0.0455784 0.0460605 0.0465565
0.0475887 0.0486435 0.0497102 0.0507968 0.0516484 0.0517026 0.0517568 0.051811 0.0518651 0.0519192
0.0530471 0.0542009 0.0553819 0.0565855 0.0578082 0.0590782 0.0603259 0.0615546 0.0627996 0.0640383
0.0646607 0.0652735 0.0658836 0.0664922 0.0671032 0.067728 0.0683432 0.0689496 0.0695575 0.0701709
0.0714188 0.0726761 0.0739306 0.07518 0.0764191 0.0772213 0.0780161 0.0788119 0.0796093 0.0805027
0.0808958 0.0812891 0.0816827 0.0820769 0.0824633 0.0825048 0.0825463 0.0825878 0.0826293 0.0826707
0.0851769 0.0876676 0.0901433 0.0925621 0.0949523 0.0997097 0.10442 0.109019 0.113506 0.117849
0.124961 0.131977 0.138869 0.14564 0.15909 0.16354 0.16799 0.172439 0.176886 0.181439
0.184717 0.187995 0.191273 0.19455 0.197828 0.205567 0.213309 0.221051 0.228793 0.236534
0.244262 0.252002 0.259742 0.267482 0.275221 0.282941 0.29068 0.29842 0.306159 0.313898
0.321611 0.329349 0.337088 0.344826 0.352565 0.360272 0.368009 0.375747 0.383485 0.391223
0.398923 0.40666 0.414396 0.422133 0.42987 0.437565 0.445301 0.453036 0.460772 0.468508
0.476197 0.483931 0.491666 0.4994 0.507135 0.51482 0.522552 0.530285 0.538018 0.54575
0.55343 0.56116 0.56889 0.576621 0.584351 0 0.00127992 0.00256047 0.00384228 0.00512557
0.00641035 0.00831677 0.0102257 0.0121374 0.0140556 0.0159858 0.0169578 0.0179329 0.0189114 0.0198933
0.0208787 0.0218728 0.022876 0.0238891 0.024912 0.0259472 0.0263898 0.0268341 0.0272817 0.0277328
0.0278563 0.0280052 0.0281544 0.0283036 0.0284529 0.0286025 0.0291459 0.0296936 0.0302485 0.0308122
0.0313968 0.0314718 0.0315467 0.0316217 0.0316967 0.0317618 0.0319791 0.0321963 0.0324134 0.0326304
0.0328508 0.0329308 0.0330107 0.0330906 0.0331702 0.0332392 0.03345 0.03366 0.033869 0.0340746
0.0342867 0.034349 0.034411 0.0344725 0.0345336 0.0345866 0.034592 0.0345975 0.0346029 0.0346083
0.0346137 0.0348289 0.0350395 0.0352457 0.0354445 0.0356348 0.0356566 0.0356783 0.0357 0.0357217
0.0357439 0.0358456 0.0359464 0.0360461 0.0361471 0.0362915 0.0363852 0.0364783 0.0365707 0.0366622
0.0367513 0.0368556 0.0369591 0.0370622 0.0371654 0.0373143 0.0374129 0.0375113 0.0376097 0.037709
0.0378059 0.0380177 0.0382278 0.0384372 0.038646 0.0388581 0.0390781 0.0392936 0.0395048 0.039716
0.0399299 0.0401461 0.0403605 0.040574 0.0407881 0.0410047 0.0412258 0.0414434 0.0416597 0.0418763
0.0420939 0.0423127 0.0425301 0.0427473 0.042965 0.0431838 0.0436289 0.0440744 0.044523 0.044975
0.045435 0.0459135 0.04638 0.0468387 0.0473005 0.0477757 0.0482581 0.0487387 0.0492191 0.0497034
0.0501955 0.0512115 0.0522332 0.0532664 0.0543529 0.0554573 0.0558212 0.0561855 0.0565509 0.056918
0.0573058 0.0580967 0.058887 0.059677 0.0604708 0.0612725 0.0624716 0.063646 0.0648268 0.0660227
0.0672144 0.0684406 0.0696426 0.0708219 0.071995 0.0731601 0.0736319 0.0741028 0.0745742 0.075046
0.0755083 0.0758234 0.0761387 0.0764541 0.0767696 0.0770935 0.0774789 0.0778646 0.0782505 0.0786368
0.0790232 0.0813674 0.0837135 0.086059 0.0883743 0.0906618 0.0951681 0.0997267 0.104194 0.108518
0.112735 0.121043 0.129322 0.137539 0.145583 0.153459 0.1612 0.168941 0.176679 0.184413
0.192144 0.199871 0.207599 0.215324 0.223048 0.23077 0.237852 0.244934 0.252014 0.259094
0.266185 0.26682 0.267454 0.268088 0.268722 0.269356 0.27707 0.284784 0.292498 0.300213
0.307927 0.315634 0.323348 0.331062 0.338776 0.34649 0.35419 0.361904 0.369618 0.377332
0.385045 0.39274 0.400453 0.408166 0.41588 0.423593 0.431282 0.438994 0.446707 0.454419
0.462132 0.469816 0.477528 0.485239 0.492951 0.500663 0.508342 0.516053 0.523763 0.531474
0.539184 0.546858 0.554567 0.562275 0.569984 0.577693 0 0.00127752 0.00255576 0.00383511
0.00511574 0.00639765 0.00829921 0.0102027 0.0121091 0.0140203 0.0159395 0.0169037 0.0178697 0.0188377
0.0198079 0.0207804 0.0217541 0.0227329 0.0237169 0.0247055 0.0256979 0.0266886 0.0276857 0.028691
0.0296916 0.0307001 0.0307755 0.0308509 0.0309263 0.0310015 0.031071 0.0319931 0.0328957 0.0337778
0.0346387 0.0354971 0.035945 0.0363906 0.0368342 0.0372767 0.0377138 0.0381523 0.0385884 0.0390236
0.0394581 0.0398868 0.0403199 0.0407531 0.0411866 0.0416204 0.0420548 0.0424909 0.042926 0.0433619
0.0437988 0.0442376 0.0451156 0.0460022 0.0468953 0.047796 0.0487217 0.0496687 0.0506082 0.0515412
0.052481 0.0534302 0.0541594 0.0548939 0.0556306 0.0563691 0.0575023 0.0576587 0.0578153 0.0579721
0.0581289 0.0582858 0.0592695 0.0602528 0.0612363 0.0622197 0.0632019 0.0652018 0.0671886 0.0691647
0.0711504 0.0731336 0.0750919 0.0770765 0.0790757 0.0810788 0.0830838 0.0870954 0.0911241 0.0951212
0.0990734 0.10302 0.105891 0.108768 0.111652 0.11453 0.117919 0.122867 0.127788 0.132681
0.137548 0.142389 0.150098 0.157811 0.165521 0.173228 0.180933 0.188627 0.196327 0.204026
0.211724 0.21942 0.227107 0.2348 0.242492 0.250183 0.257873 0.265555 0.273243 0.280929
0.288615 0.2963 0.303979 0.311661 0.319343 0.327024 0.334705 0.34238 0.350058 0.357736
0.365412 0.373089 0.380761 0.388435 0.396108 0.403781 0.411453 0.419123 0.426793 0.434463
0.442132 0.4498 0.457467 0.465133 0.4728 0.480465 0.488131 0.495794 0.503458 0.51112
0.518783 0.526444 0.534104 0.541764 0.549424 0.557083 0.564742 0 0.00127409 0.00254879
0.00382395 0.00510033 0.00637794 0.00827383 0.0101718 0.0120722 0.0139755 0.0158829 0.0177922 0.0197067
0.0216261 0.0235502 0.0254823 0.0264531 0.027421 0.0283839 0.0293419 0.0299619 0.0309797 0.03199
0.0329897 0.0339793 0.0349572 0.0358661 0.0367717 0.0376732 0.0385717 0.0394612 0.0403519 0.0412409
0.0421289 0.043016 0.0439023 0.0456794 0.0474739 0.0492828 0.0511015 0.0529366 0.0537993 0.0546633
0.0555294 0.0563975 0.057743 0.058634 0.0595269 0.0604215 0.061318 0.0622159 0.0640915 0.06597
0.0678511 0.069735 0.0716208 0.0735163 0.0754039 0.0772925 0.0791826 0.0810736 0.0848695 0.0886645
0.092464 0.096268 0.100086 0.107784 0.115486 0.123142 0.130762 0.138396 0.146045 0.153691
0.161336 0.168979 0.176621 0.184267 0.191909 0.19955 0.20719 0.214828 0.222469 0.230107
0.237744 0.24538 0.253015 0.260654 0.268289 0.275924 0.283557 0.29119 0.298826 0.306459
0.314091 0.321722 0.329353 0.336986 0.344617 0.352247 0.359877 0.367505 0.375136 0.382765
0.390393 0.39802 0.405647 0.413275 0.420902 0.428528 0.436153 0.443778 0.451405 0.459029
0.466653 0.474277 0.481899 0.489524 0.497147 0.504769 0.512391 0.520011 0.527633 0.535254
0.542874 0.550494 0.558113 0 0.00127141 0.0025432 0.00381553 0.00508844 0.00636196 0.0101413
0.0139323 0.0177224 0.021509 0.0252996 0.0257909 0.0262809 0.0267701 0.0272583 0.0276881 0.0290773
0.0304612 0.03184 0.0332137 0.0345848 0.036426 0.0382576 0.0400723 0.041883 0.0436886 0.0454998
0.0473084 0.0491184 0.0509371 0.0527671 0.0546033 0.056441 0.0582815 0.0601249 0.0619709 0.0656731
0.0693892 0.0731212 0.0768681 0.0806188 0.0843891 0.0881577 0.0919264 0.0956972 0.0994704 0.107
0.114528 0.122061 0.129609 0.137173 0.144751 0.152326 0.159903 0.167481 0.175057 0.182638