# vtk DataFile Version 2.0
sampleSurface
ASCII
DATASET POLYDATA
POINTS 2021 float
-0.500032 0 0.11501 -0.499951 3.38813e-21 0.0392727 -0.789037 8.47033e-21 0.120673 -0.500013 -1.35525e-20
0.193965 1.00003 0 0.0485099 1.00003 0 0.0478584 0.475202 0 0.0353615
0.250044 1.41878e-20 0.0305359 0.2506 -5.42101e-20 0.117067 0.251301 0 0.203885 0.364989
0 0.203772 1.75002 0 0.113255 1.75002 0 0.0564279 2.50001 6.89146e-18
0.059229 2.21354 0 0.250758 2.50001 0 0.252875 3.25001 -3.47927e-17 0.0598775
3.25001 -1.69407e-21 0.253888 4.00001 5.60566e-18 0.0599857 4 0 0.253986 4.75
-1.79088e-17 0.0599988 4.75 8.47033e-22 0.253998 5.5 -2.79246e-17 0.0599999 5.5 -4.23516e-22
0.253999 6.25 1.01187e-17 0.06 6.25 0 0.254 7 2.93732e-17 0.06
7 0 0.254 7.75 -2.65294e-17 0.06 7.75 0 0.254 8.5
1.8923e-17 0.06 8.5 0 0.254 9.25 -2.88552e-17 0.06 9.25 -5.29396e-23
0.254 10 -2.64698e-23 0.254 10 0 0.06 -4.24997 0 0.0599042
-5 0 0.0599861 -5 0 0.253986 -4.24997 0 0.253912 -3.49995
0 0.0593815 -3.49994 0 0.253441 -2.74993 0 0.0570188 -2.74991 0
0.251316 -1.99991 0 0.0492276 -1.99987 0 0.242776 -1.24992 -1.69407e-21 0.03
-1.24985 1.23328e-17 0.222327 -1.24989 3.38813e-21 0.125756 -0.874924 2.08116e-17 0.03 -0.874929
0 0.122356 -0.124951 -8.47033e-22 0.03 -0.499941 0 0.03 -0.124922 -8.47033e-22
0.0385291 1.00021 0 0.231242 0.625368 0 0.203537 0.25004 -2.11758e-22 0.03
1.75003 0 0.247334 1.92873 1.69407e-21 0.441438 2.50001 0 0.447397 3.25
-1.69407e-21 0.447898 4 0 0.447986 4.75 0 0.447997 5.5 -4.23516e-22
0.447999 6.25 4.23516e-22 0.447999 7 0 0.448 7.75 -1.05879e-22 0.448
8.5 0 0.448 9.25 0 0.448 10 -2.64698e-23 0.448 -5
-8.47033e-22 0.447985 -4.24997 0 0.447919 -3.49993 0 0.4475 -2.74988 0
0.445609 -1.9998 6.77626e-21 0.437758 -1.24969 1.61411e-17 0.417681 -1.24976 -6.77626e-21 0.31973
-0.875161 7.70461e-18 0.216228 -0.875403 0 0.312476 -0.499924 -8.74138e-19 0.250039 -0.312433
0 0.250037 -0.312436 0 0.200025 -0.499924 0 0.200026 0.250062 3.38813e-21
0.24921 0.250039 -1.69407e-21 0.250046 0.250032 0 0.300069 0.437526 3.05948e-18 0.300066
0.625026 0 0.30005 1.00072 -8.23994e-18 0.326497 1.00196 0 0.423 1.75013
0 0.439575 1.75013 1.77877e-20 0.448245 1.00135 0 0.537141 1.00002 0
0.61834 1.74999 2.71051e-20 0.633055 2.49999 -3.38813e-21 0.641448 3.25 0 0.641907
4 -1.69407e-21 0.641985 4.75 -8.47033e-22 0.641996 5.5 -4.23516e-22 0.641998 6.25
0 0.641999 7 0 0.641999 7.75 0 0.642 8.5 5.29396e-23
0.642 9.25 -5.29396e-23 0.642 10 0 0.642 -5 0 0.641985
-4.24997 -1.69407e-21 0.641926 -3.49993 0 0.641557 -2.74988 0 0.639897 -1.99989
6.77626e-21 0.63382 -1.25099 2.55465e-18 0.614606 -1.25 -2.71051e-20 0.515981 -0.878244 0
0.50789 -0.875961 2.71051e-20 0.459694 -0.875609 0 0.410432 -0.498432 0 0.400603
-0.498071 -1.70762e-18 0.413126 -0.450805 0 0.413349 -0.45095 0 0.400955 0.250009
1.89735e-19 0.412703 0.25 2.71051e-20 0.425212 0.296872 1.00289e-18 0.425187 0.343754 -2.71051e-20
0.425153 0.343763 0 0.400146 0.250006 0 0.400175 1.00162 1.41488e-17 0.520353
-2 4.23516e-22 0.820145 -2.09502 -2.11758e-22 0.830091 -2 0 0.829497 -1.25123
0 0.813251 -1.25126 0 0.713737 -1.25101 6.77626e-21 0.62198 1.00059 0
0.714169 1.00094 0 0.809205 1.75018 0 0.82775 2.5 0 0.835521
3.25 0 0.835917 4 -1.69407e-21 0.835986 4.75 -8.47033e-22 0.835996 5.5
0 0.835998 6.25 0 0.835999 7 0 0.835999 7.75 0
0.836 8.5 0 0.836 9.25 0 0.836 10 0 0.836
-5 -8.47033e-22 0.835986 -4.24997 0 0.835935 -3.49995 0 0.835616 -2.74991
0 0.83419 -0.970118 0 0.703382 -0.87455 0 0.699864 -0.874264 -2.71051e-20
0.649852 -0.874033 -2.71051e-20 0.599873 -0.49698 0 0.599585 -0.497345 -9.21572e-19 0.612046
-0.450014 0 0.611892 -0.44938 2.71051e-20 0.599454 -2.00002 0 0.84097 -1.84639
-3.38813e-21 1.02215 -1.25185 0 1.01276 -0.896512 -3.38813e-21 0.900668 -0.908183 6.77626e-21
0.801076 -0.904022 -1.86347e-20 1.00093 0.624925 0 0.799916 0.249931 0 0.799891
0.249978 0 0.899916 0.249997 0 0.999939 0.999987 0 0.999957 1.75061
-2.1684e-19 1.02409 2.50003 0 1.0296 3.25 -1.69407e-21 1.02993 4 0
1.02999 4.75 0 1.03 5.5 0 1.03 6.25 2.11758e-22 1.03
7 0 1.03 7.75 0 1.03 8.5 5.29396e-23 1.03 9.25
0 1.03 10 0 1.03 -5 0 1.02999 -4.24998 0
1.02994 -3.49996 -8.47033e-22 1.02968 -2.74996 0 1.02849 -2.00026 0 1.02458
-0.87482 0 0.799893 -0.87491 0 0.899919 -0.49993 0 0.799862 -0.499958
7.6233e-19 0.849889 -0.312476 0 0.849885 -0.312472 0 0.799853 -1.25001 8.04681e-21
1.19601 -0.499979 5.29396e-23 1.10737 -0.731886 2.11758e-22 1.19997 -0.499981 0 1.19997
-0.124987 0 0.999933 -0.477759 -5.29396e-23 0.999933 -0.487556 -1.45584e-22 1.09995 0.250008
0 1.19997 1 0 1.19997 1.7507 0 1.22203 2.50003 -1.35525e-20
1.22368 3.25 0 1.22394 4 0 1.22399 4.75 4.23516e-22 1.224
5.5 0 1.224 6.25 2.11758e-22 1.224 7 0 1.224 7.75
1.05879e-22 1.224 8.5 0 1.224 9.25 0 1.224 10 2.64698e-23
1.224 -5 4.23516e-22 1.22399 -4.24999 -4.23516e-22 1.22395 -3.49998 0 1.22374
-2.75001 0 1.22279 -2.00077 0 1.21965 -1.24997 4.23516e-22 1.19997 -0.499969
-5.29396e-23 0.999933 -0.874942 0 0.999936 -0.499979 -1.32349e-23 1.09995 -2.75001 0
1.36967 -3.18711 4.23516e-22 1.41751 -2.75001 4.23516e-22 1.4171 -2.00072 3.38813e-21 1.29692
-2.00065 0 1.41474 -1.25823 6.35275e-21 1.40014 -0.980416 0 1.39998 -0.499986
0 1.39998 0.250009 0 1.39998 1 0 1.39998 1.75054 0
1.41682 2.50002 -1.35525e-20 1.41776 3.25 0 1.41796 4 4.23516e-22 1.41799
4.75 0 1.418 5.5 0 1.418 6.25 0 1.418 7
0 1.418 7.75 0 1.418 8.5 0 1.418 9.25 0
1.418 10 0 1.418 -5 0 1.41799 -4.24999 0 1.41797
-3.49999 -4.23516e-22 1.41781 -1.24998 0 1.39998 -2.80392 1.32349e-23 1.61143 -2.75
-1.32349e-23 1.6114 -2.0003 0 1.60983 -1.25396 2.64698e-23 1.60004 -1.12789 2.64698e-23
1.59999 -0.49999 1.05879e-22 1.59999 0.250008 0 1.59999 1.00001 4.23516e-22 1.59999
1.75038 0 1.61122 2.50002 0 1.61184 3.25 -4.23516e-22 1.61197 4
-4.23516e-22 1.61199 4.75 0 1.612 5.5 0 1.612 6.25 0
1.612 7 0 1.612 7.75 5.29396e-23 1.612 8.5 2.64698e-23 1.612
9.25 -1.32349e-23 1.612 10 -1.32349e-23 1.612 -5 0 1.61199 -4.24999
0 1.61198 -3.49999 0 1.61187 -1.24999 0 1.59999 -2.75 -1.32349e-23
1.63714 -2.64195 -2.11758e-22 1.80559 -2.00012 -8.47033e-22 1.80492 -1.25741 0 1.80004
-1.19082 -7.94093e-23 1.8 -0.499992 1.05879e-22 1.79999 0.250006 2.11758e-22 1.79999 1
0 1.8 1.75023 0 1.80561 2.50001 3.38813e-21 1.80592 3.25 0
1.80599 4 0 1.806 4.75 2.11758e-22 1.806 5.5 0 1.806
6.25 0 1.806 7 0 1.806 7.75 0 1.806 8.5
2.64698e-23 1.806 9.25 0 1.806 10 0 1.806 -5 0
1.806 -4.25 -2.11758e-22 1.80599 -3.49999 0 1.80594 -2.75 -1.05879e-22 1.8057
-1.24999 0 1.8 -2 -4.76456e-22 1.98532 -1.20969 -1.65436e-23 2 -0.499993
0 2 0.250006 0 2 1 0 2 1.75 0
2 2.5 0 2 3.25 0 2 4 0 2
4.75 -1.05879e-22 2 5.5 0 2 6.25 0 2 7
5.29396e-23 2 7.75 0 2 8.5 0 2 9.25 0
2 10 -1.32349e-23 2 -5 2.21817e-18 2 -4.25 1.05879e-22 2
-3.49999 0 2 -2.74999 0 2 -1.99999 -5.29396e-23 2 -1.24999
3.30872e-24 2 0.0956945 -5.42101e-20 0.203879 0.0632748 0 0.203876 0.0625511 0
0.250042 -0.403589 6.77626e-21 0.40138 -0.405779 7.7927e-19 0.38799 -0.406379 -6.77626e-21 0.375196
-0.499567 -1.35525e-20 0.375265 0.250006 -6.50521e-19 0.375144 0.156247 0 0.375155 0.156237
9.41901e-19 0.400212 0.203129 0 0.400201 0.249796 0 0.59991 0.249852 -1.0842e-19
0.587433 0.202953 0 0.587417 0.202888 6.50521e-19 0.599901 0.625121 -6.77626e-21 0.499953
0.717439 6.77626e-21 0.504955 0.625095 6.77626e-21 0.475379 0.343596 1.0842e-19 0.599918 0.343639
0 0.574939 0.296781 0 0.574964 0.249926 0 0.574977 0.62499 -4.2826e-18
0.549927 0.624917 4.55365e-18 0.599925 0.203133 0 0.412725 -0.449046 0 0.587135
-0.496581 5.42101e-20 0.587161 0.625036 -9.32414e-18 0.40006 0.625067 1.13164e-18 0.450032 0.249704
0 0.624881 0.155871 0 0.599866 0.155839 1.95156e-18 0.624853 0.249886 1.35525e-20
0.749873 0.062411 0 0.749846 0.0624478 -4.26227e-18 0.799869 -0.312472 0 0.749804
-0.499901 -3.38813e-21 0.749824 -0.691227 0 0.30453 -0.499912 3.02221e-18 0.300065 -0.875784
-3.11708e-18 0.361353 -0.592465 -2.71051e-20 0.40036 -0.499854 0 0.350135 -0.687111 1.35525e-20
0.350117 -0.68656 -2.71051e-20 0.40021 0.437526 -1.35525e-20 0.400108 0.437522 6.77626e-21 0.350086
0.250015 -2.51399e-18 0.35011 0.625027 3.38813e-21 0.350064 -0.592287 0 0.425286 -0.498048
0 0.425444 -0.873902 5.42101e-18 0.54992 -0.496663 0 0.574746 -0.591532 0
0.574798 -0.591729 0 0.599734 -0.149108 0 0.406489 -0.149477 -5.29396e-23 0.403592
-0.149678 0 0.406489 -0.451876 -2.1684e-18 0.499977 -0.451579 0 0.487563 -0.498366
0 0.487552 -0.498515 -1.0842e-19 0.499993 0.437553 0 0.450075 0.437532 -6.07153e-18
0.425113 0.254621 -1.25361e-19 0.496697 0.26485 -5.42101e-20 0.498023 0.264831 0 0.496529
0.254636 -2.30393e-19 0.49668 0.570241 0 0.499932 0.437665 -2.71051e-20 0.474991 0.437859
-2.71051e-20 0.49988 0.437372 -1.0842e-19 0.599915 0.249722 3.25261e-19 0.649874 0.43732 -5.42101e-20
0.649899 0.624872 0 0.649914 0.624883 -3.95734e-18 0.699913 0.43734 6.83047e-18 0.699894
0.249817 0 0.699869 -0.592227 0 0.624743 -0.498071 -2.71051e-20 0.624658 -0.499769
6.77626e-21 0.69979 -0.687025 0 0.699824 -0.150854 -1.03677e-18 0.599678 -0.151059 -6.77626e-21
0.605522 -0.127339 6.77626e-21 0.605681 -0.127867 0 0.599582 -0.406139 -4.40457e-20 0.699754
-0.406113 0 0.674749 -0.499634 0 0.674774 -0.18433 -4.23516e-22 0.674527 -0.163626
-4.23516e-22 0.678958 -0.165125 0 0.674537 -0.171868 4.23516e-22 0.674524 -0.14924 3.34737e-19
0.400169 -0.125737 0 0.400165 -0.12551 0 0.393854 -0.149076 -2.11758e-22 0.393877
-0.499925 -2.61564e-18 0.325088 -0.406241 0 0.325087 -0.4062 0 0.300069 -0.124901
0 0.300062 -0.218633 -3.27294e-18 0.299673 -0.218596 1.35525e-20 0.324664 -0.124851 0
0.325085 -0.126061 7.86047e-19 0.406473 -0.0785222 1.30782e-18 0.400166 -0.126118 3.38813e-21 0.41275
-0.0785648 0 0.412729 0.240678 1.0842e-18 0.500153 0.252614 -2.1684e-19 0.498317 0.252386
1.0842e-19 0.496231 0.241035 0 0.496114 0.228892 -1.35525e-20 0.496204 0.228835 6.77626e-21
0.498715 0.229819 2.71051e-20 0.500074 0.25248 0 0.499935 0.240657 -1.6263e-19 0.500957
0.264863 0 0.500154 0.264689 0 0.500951 0.437443 0 0.549896 0.437406
[...]
POINT_DATA 2021
FIELD attributes 2
p 1 2021 float
2.00688 1.43566 2.36828 4.35955 0.0602802 0.0581649 -4.20374 -6.04241 -7.69102 -6.16244 -4.3182
0.496582 0.464423 0.111704 0.326739 0.174878 0.00327338 0.0271079 0.00539573 0.0143292 0.00955856
0.0155415 0.00484604 0.00996135 0.000248167 0.00458836 -0.00131316 0.0023884 -0.00100127 0.00218266 -0.000424485
0.00216618 0.00057927 0.00334472 0 0 0.614007 0.609556 0.609404 0.613721 0.634869
0.633973 0.704773 0.701643 0.926667 0.923386 1.64037 1.76193 1.77716 2.23503 2.47551
-4.05816 1.36567 -4.111 0.652658 -0.108088 -6.03219 0.572434 0.442561 0.189725 0.0291868
0.00725173 0.00943145 0.00564302 0.00112439 -0.000527533 -0.000209808 -0.000368756 0.00266954 0 0.608971
0.612951 0.631559 0.692613 0.902297 1.95588 2.02853 3.12706 3.87136 7.31972 -3.30692
-1.05599 4.57955 -5.72389 -5.71597 -2.25476 0.342715 0.829745 1.03308 0.928382 0.521596
0.517397 0.848914 0.881303 0.427753 0.167319 0.0230332 0.00230688 0.00652819 0.00442405 0.000530557
-0.000859484 -0.000345367 -0.000222055 0.00287591 0 0.60828 0.61176 0.627923 0.679931 0.861887
1.8499 2.13559 5.13339 5.58728 4.8247 32.5706 36.4552 52.024 45.9801 4.76655
4.91266 3.39772 3.43253 2.69184 4.09699 0.842215 0.807873 0.78741 0.805162 1.3965
1.7854 1.84513 0.993116 0.482976 0.350043 0.127786 0.0136284 0.000515187 0.00700577 0.00624152
0.00269135 0.00126372 0.00156049 0.00211735 0.00352578 0 0.607404 0.610279 0.623491 0.665061
3.25163 3.75005 4.68189 4.75975 34.3573 32.6966 44.6217 50.7619 0.801332 0.781087
0.939647 1.70217 2.62682 1.14188 0.080607 -4.88025 -5.3001 -2.74796 -0.227995 0.191335
0.073357 -0.00550715 -0.0108958 -0.000908766 0.000957868 -0.00109668 -0.00163822 -0.000755453 0.000349255 0.00130778
0 0.606434 0.608656 0.618665 0.649088 0.740029 2.74637 1.73192 5.18923 3.29298
0.558445 -0.673108 0.697693 0.31108 0.312818 0.142882 -1.7091 0.673576 0.281573 -0.974054
-0.393505 0.0981311 0.064812 -0.00295327 -0.0109099 -0.00101426 0.00153136 -0.000271791 -0.000800956 5.26008e-05
0.00110211 0.00159347 0 0.605469 0.607046 0.61382 0.63297 0.676571 0.692457 0.823592
1.15878 0.324562 0.621748 0.613039 0.618124 0.656322 0.625439 0.566493 0.383866 0.059547
-0.56432 -0.37746 0.0463256 0.0593089 -0.00437636 -0.0151395 -0.00434988 -0.00069308 -0.00200759 -0.00228984
-0.00126708 -9.83719e-05 0.000466501 0 0.604605 0.60559 0.609399 0.565838 0.606357 0.606396
0.590374 0.495374 0.426873 0.0772133 -0.435339 -0.348675 -0.000887529 0.0480705 -0.00792604 -0.0187824
-0.00643213 -0.00168961 -0.00260754 -0.00270719 -0.00158451 -0.00035004 0.00028523 0 0.603926 0.604418
0.605857 0.494869 0.605417 0.59484 0.570064 0.457739 0.42742 0.0865511 -0.365103 -0.332783
-0.0274167 0.0429827 -0.00832271 -0.0198613 -0.00718247 -0.00210546 -0.00292772 -0.00296353 -0.00179374 -0.000532783
0.00014861 0 0.603487 0.603636 0.603516 0.599011 0.456617 0.563797 0.425267 0.0896468
-0.342738 -0.327644 -0.035714 0.0414519 -0.00841703 -0.0202773 -0.00754002 -0.00233396 -0.00308679 -0.0030607
-0.00184839 -0.000567796 0.000134972 8.3473e-05 0.603333 0.603353 0.602673 0.596493 0.563287 0.444326
-10.2825 -11.1404 -11.7871 70.4838 60.0717 43.8831 29.6689 2.9417 1.71858 4.42402
5.07548 4.1304 4.54344 6.17291 5.39097 2.02487 1.73475 2.14085 2.95582 3.66318
3.35496 3.95769 2.24326 1.91001 6.0563 56.2498 39.444 1.93459 2.26016 3.63271
4.72581 2.15006 -4.52993 -11.2038 -9.84267 -3.18518 8.46568 7.00228 11.8998 4.74792
17.4612 20.8159 9.13485 10.515 2.58129 1.50142 1.00685 1.65633 19.7279 36.9122
5.61155 39.6435 20.3279 18.8187 -58.7454 -58.5319 -58.7424 68.4603 68.373 47.5596
44.7942 3.40963 3.11027 -5.05266 0.327211 0.17686 -5.10243 2.58761 3.98202 3.94135
2.85396 1.82582 1.75377 1.62261 0.947413 0.756662 -1.36453 17.0049 28.1058 13.2972
7.27654 -56.4738 -56.2717 -58.7296 -58.6478 13.88 19.1177 18.4859 -46.254 -42.6988
-44.3758 -45.1101 -58.2832 -57.5545 -57.5579 -57.7012 16.6076 15.881 11.9995 -29.3626
-27.9827 -45.3782 -37.0542 -58.8671 -45.9784 -58.6796 -48.0627 11.0098 4.28687 10.5242
11.8711 9.11059 9.38684 9.67554 4.50983 11.1315 0.887159 0.718797 3.71356 3.46675
4.06353 4.31642 47.7529 68.3428 -58.7677 -56.3875 6.50115 11.1359 -51.3851 -52.6847
-58.3596 4.47076 6.29296 6.46706 6.49807 -31.4114 -40.0093 -49.4156 -29.7762 64.4062
60.7909 41.6543 41.4035 -44.0485 -56.072 -11.5154 -8.56152 -0.427843 -24.5066 -42.4257
42.9822 44.3091 64.3069 66.4777 -51.7409 -49.9048 -50.6755 0.310501 -9.6875 -12.7195
-11.6921 -21.6684 -24.8681 -57.7988 44.0384 21.8506 22.1446 11.7005 12.017 12.191
13.1418 22.0217 44.5033 10.7966 12.4594 11.8997 13.2394 -58.6208 -58.6103 -58.0818
-58.069 -57.4455 -56.8213 -56.4531 45.8175 66.8287 -58.2745 -58.5309 -58.9306 -58.1812
-29.7584 -34.9515 -32.6514 -13.6692 -1.5603 -4.86884 -50.5074 -50.1495 -57.9624 -13.0759
0.160033 0.0803085 -13.3017 -58.2434 -56.7709 -51.23 -12.4261 -10.1655 -3.67163 1.58173
-7.39494 -5.63809 -18.6765 -38.3764 -41.4399 -36.3403 -52.2258 -53.2239 -52.9696 -4.16703
-17.5916 -18.3355 -4.78217 -56.0448 -51.9732 -56.0764 -3.59943 -9.32345 -16.6307 -11.5895
67.5297 46.8675 -54.1276 -54.284 -56.7218 -56.6208 -56.1345 -53.6201 -57.0148 -53.1567
-55.9131 -58.9159 -59.0501 -59.0914 -32.0936 -77.025 -96.0451 -100.994 -103.231 -102.792
-48.5528 -50.166 -54.2039 -48.2205 -49.8844 -98.1372 -99.4685 -71.3132 -34.3206 -58.4123
-59.236 -58.9276 -56.2336 -57.1211 -57.1766 -57.1008 -57.5187 7.13442 6.06162 8.95051
-56.006 -55.6896 -55.9106 -55.4015 -55.5251 -55.7866 -56.19 -55.0503 -55.0349 2.02065
1.81106 0.691585 1.20016 4.16417 4.53943 1.29921 -55.7957 -56.2688 -56.9037 5.80488
6.64072 2.7871 0.877296 3.14377 -32.0178 -38.0331 -37.2775 -31.612 -54.4375 -54.9339
-57.8702 -57.5589 -54.8905 -55.7377 -38.9404 -43.2839 -43.1033 -36.9704 -46.0617 -50.0954
-53.1702 -53.3195 -52.1812 123.59 131.45 146.793 146.881 -58.0759 -56.1768 -56.4412
-57.7852 -57.6072 4.47783 2.20459 3.10758 4.69896 -9.78217 -3.96532 -5.90753 -8.93777
-11.8185 -39.0715 -36.9017 -25.6312 -27.3398 -32.1434 -39.0898 -24.7873 -24.8335 31.1046
41.284 52.1244 37.9282 23.0731 19.2868 34.2609 26.1528 0.670799 0.82901 1.9877
34.0738 24.8996 17.1026 22.2057 2.86594 3.81127 4.45283 4.56172 3.66332 6.64208
6.74359 4.56116 -9.34777 -8.23051 -1.37574 -10.2296 14.6863 9.14646 10.8215 -54.6003
-56.8489 -56.9794 -54.7945 -82.5992 -81.3172 -84.5592 -47.88 -12.669 -18.3183 -27.5627
-56.0181 -52.8254 -55.3596 -56.4543 -74.0811 -73.8229 -58.4369 -59.6758 -49.4524 -47.9376
-50.1826 -50.3805 3.73494 3.79752 -0.632715 6.00218 5.65103 4.65359 5.32834 5.74592
6.14822 -54.0801 -53.6155 -68.7033 -67.9121 79.0083 94.107 85.7062 112.11 106.421
88.8409 90.1546 161.852 164.185 153.365 121.629 98.4079 104.347 97.3042 117.643
-12.8574 -26.9105 -31.2249 -5.82117 -26.0971 -52.0672 -41.7054 -6.29729 93.7253 101.223
86.8049 78.2731 96.6982 88.3954 107.607 148.466 158.216 167.406 165.142 106.623
102.9 159.635 -32.6328 -8.00889 -38.305 -28.5244 -47.6883 140.205 140.074 115.597
110.577 110.239 115.503 139.598 138.982 108.129 167.232 170.838 172.006 172.298
173.708 186.647 186.835 174.814 173.266 -32.8874 -40.0171 -32.8489 -56.4022 -50.7593
-42.6068 -41.8535 -40.5914 -25.496 2.79483 -2.56433 -0.607331 173.386 175.331 187.188
172.358 186.504 187.148 175.218 172.168 179.597 181.761 170.11 168.878 179.894
167.876 171.094 182.419 -52.6177 -37.8847 -36.6417 -55.6838 -55.7384 -55.832 -36.4285
-46.2582 -36.5148 -36.9596 -45.8514 -45.8212 -3.42641 -9.2932 -25.1849 -25.2131 -32.8304
-43.4769 -32.8759 -32.5808 -42.9127 -21.1484 -18.8523 -20.5961 115.414 140.134 138.119
139.029 114.672 109.3 170.034 169.908 170.476 167.738 136.393 108.391 113.568
137.144 -57.0678 -54.1061 -52.7803 -52.6089 -55.6501 -46.1343 90.1705 93.4531 78.723
-14.8992 -6.18126 -6.71665 -20.8205 54.5445 56.4067 70.0054 73.6542 -55.8845 -55.1278
-55.4255 -55.8768 -57.0449 -57.2905 -57.426 -57.5287 -56.0641 -56.1539 -55.7178 -55.8322
-134.782 -109.259 -77.7048 -95.5937 -97.9536 -99.0767 -99.0685 -83.1877 -79.0009 -92.5868
-70.2984 -85.0247 -132.735 -136.464 -128.476 -96.2435 -97.0428 -54.7181 -54.1636 -54.8498
-55.9782 -56.2672 -53.7977 -53.7119 6.81845 7.35901 13.7639 16.3974 13.8567 -50.892
-50.1619 -45.6769 -45.9163 -46.0967 -45.8955 -45.8687 -45.6523 12.9265 12.6592 16.8658
8.23694 8.0387 9.61171 10.0952 10.1215 8.48631 7.2991 8.05618 12.3864 15.7095
13.7212 0.751625 -0.875182 -3.06505 7.01438 6.18808 5.0632 6.39884 7.12215 -52.4497
-53.3167 -56.277 -55.6098 -48.6222 -49.5828 13.6522 15.621 17.0286 -46.756 -49.6478
-49.7807 -46.4725 -45.6341 11.3492 11.0916 11.1342 9.54727 6.84299 -7.02666 -5.78818
5.46478 6.27728 6.23836 -48.4989 -48.8231 146.503 148.528 140.949 136.985 113.392
118.339 125.746 121.226 184.608 185.885 182.186 178.427 -55.6523 -55.5892 -52.9952
-52.9026 169.635 183.358 185.056 172.993 174.449 186.571 171.027 182.143 169.624
179.278 -16.9355 -19.2045 -23.9559 -28.2101 -26.8122 -22.9286 -8.67324 -3.35669 -3.8022
-8.98389 -14.0008 -13.6258 -1.04029 -9.06934 -9.93872 -15.0286 -18.1538 -8.23449 -8.98846
-24.9613 -20.2407 -9.65697 -0.78144 -3.05249 6.07008 -3.44721 6.05277 6.81395 3.35145
3.88757 4.61162 4.17451 7.72062 6.09816 3.94836 5.80534 -18.9075 -15.9898 -26.3205
-21.4536 -56.4345 -58.1692 -58.752 -58.6101 3.02419 3.09403 5.05058 5.53368 4.28961
4.89186 -14.5745 -40.321 -57.2428 -65.452 -53.2719 -31.916 -58.9201 10.7416 10.1964
10.2196 -2.46843 0.193506 11.9764 17.2434 9.48942 23.7593 20.6472 10.4505 1.66766
6.81256 8.30743 13.1172 11.5543 6.76334 -53.4347 -44.0106 -49.8691 -13.0647 -43.8954
-24.9517 -60.6061 -83.6998 108.758 92.8272 106.249 108.437 112.794 111.938 172.881
172.004 173.256 172.572 171.273 185.963 185.964 185.198 -57.9253 -58.1493 174.485
-56.1768 -56.1753 -57.1221 -57.2875 -56.9964 -55.727 -149.406 -136.334 -136.24 -132.896
-157.036 -136.164 -132.541 -132.851 -119.641 -115.079 -80.3373 -73.1724 -73.5161 -70.8919
-119.491 -121.225 -56.7616 -55.7593 -54.6532 -57.139 9.52202 7.15775 10.6972 8.23768
11.017 12.0478 12.4215 13.3905 14.1849 -55.2386 -54.3125 -56.2564 -55.058 -53.0993
-52.8374 -52.9476 -54.8826 -5.98658 -0.483222 -1.42019 -4.61023 9.16912 9.53821 6.79258
5.83744 7.55755 9.53643 8.77624 6.70409 1.27541 8.13477 7.0236 6.86547 8.68367
10.4169 9.23188 12.0715 11.3507 -54.6701 -55.0955 -55.1116 -55.2366 -55.3894 -55.2457
-54.7499 -52.6868 -54.0136 -54.0223 -54.042 -51.0288 -52.416 -73.7534 -72.9878 -57.5954
-59.8765 -77.5633 -68.4013 -77.4694 -123.899 -128.484 -136.112 -79.5005 -97.553 -107.376
-80.3639 -98.8937 128.777 113.616 148.54 151.763 -54.5501 -53.7586 -54.8862 -54.8785
-53.0941 143.887 167.874 146.146 -48.9371 -48.1063 -48.5375 -49.3074 -49.1099 -49.1281
-49.0552 -47.5921 -8.10121 -9.38756 -11.9202 -11.0342 -14.8804 -17.0531 -19.1928 -16.981
-17.9055 74.8156 85.515 -58.4882 51.2492 76.5377 65.0045 75.6497 61.1129 14.061
11.2237 45.6629 36.635 8.3098 9.15394 3.61772 5.28049 5.08857 7.75719 6.68939
7.05807 7.44209 8.24202 -52.6946 -52.2491 -51.982 -52.5758 -1.03981 -0.527166 -1.1005
2.25571 5.69517 5.13561 7.09605 6.52349 -50.8979 -51.2978 -51.0225 138.211 136.296
171.186 184.78 189.086 189.373 186.863 185.339 -55.7248 -55.4262 -55.7483 -55.5651
-53.1357 -45.5778 -46.3983 -47.0169 -46.23 -46.5575 -47.8402 -56.0945 -56.12 -56.7102
-57.2563 -56.9525 -56.9367 -57.0959 -56.7043 -55.0047 -115.72 -111.364 -134.661 -111.111
-134.206 -122.39 -123.798 -133.562 -56.1995 -57.4195 -55.8714 -54.4785 13.7218 12.345
11.3255 12.5082 12.7302 13.3786 -36.7089 -36.1946 -31.3912 -30.851 -41.6883 -42.2161
-46.388 -46.0007 -51.0607 -51.109 -45.4704 -52.1129 -51.7528 -6.18974 -0.949645 -11.4545
0.656999 2.0954 8.00952 7.5433 7.86998 4.2858 10.677 7.34774 8.76026 10.22
10.8653 10.7592 10.8995 12.6709 12.34 2.36885 12.4042 14.8022 15.9711 3.86495
3.37357 3.11019 3.7911 -58.8717 -58.0277 -52.8706 -56.4693 -44.6594 -44.1356 -40.1126
-44.462 -45.8666 -49.9065 -51.1048 -49.5577 -49.7775 -49.5394 -47.0196 -52.1466 -47.1847
4.18425 -48.2548 -49.5351 141.025 131.84 129.429 129.486 129.866 114.388 106.976
188.662 188.135 187.14 -50.6899 -51.0124 -1.2817 -0.713783 0.316291 -29.5426 -30.4622
186.058 186.893 180.37 183.33 181.877 181.506 -33.2329 -29.0696 -3.04218 -7.66943
-5.79643 -3.08198 -24.6602 -13.5186 -10.1095 -13.3056 -19.7383 -4.58451 80.8682 56.5114
60.846 21.065 21.4323 68.009 110.7 10.1511 7.19125 -2.26881 -2.52574 6.85292
7.6484 7.93621 6.12645 6.58104 24.5406 16.3059 -0.39724 19.7695 -1.77258 3.47274
8.17495 8.09616 68.0146 110.203 -54.638 -55.7397 18.1269 91.6876 109.076 100.403
92.4548 108.07 109.181 126.59 134.331 143.205 -55.7794 81.756 73.7653 50.6151
12.5939 18.6519 16.8231 -75.3896 -56.8446 -56.838 -56.8414 -55.2809 -55.2091 -59.9451
-55.4534 -59.905 -60.495 23.4425 -6.53583 5.97876 10.5977 10.8312 -1.42381 -1.52897
-2.64602 -55.5145 -54.0221 -1.01642 2.53895 2.8474 -57.4726 -56.9076 -56.0684 7.9769
7.66598 4.13097 -56.5589 41.6785 49.8804 -66.1366 -58.5244 17.789 15.338 8.96798
6.88804 5.05102 8.49184 6.93942 -54.074 -54.0392 -52.8574 -52.7765 -55.7603 -52.1437
-51.6619 -54.4738 -54.7721 -54.7608 -54.2583 -55.3356 -54.9128 -54.774 -54.5225 4.47865
-51.6528 -57.7251 -56.6891 100.528 129.174 144.729 155.195 168.104 162.94 160.751
148.75 188.246 -52.764 -53.6784 -51.909 -7.36003 -10.3918 -3.20639 -49.6201 -49.6502
-49.6098 -49.8738 -53.0867 -47.209 -48.7088 -47.4943 -47.0198 -47.7163 28.888 20.3207
-112.165 -119.758 -119.614 -120.248 -120.592 -74.0128 -96.6129 -74.0164 13.4119 17.0607
-10.9382 12.0625 11.5043 -5.52683 -7.101 4.06418 2.45338 0.943044 0.598835 -0.673787
-2.29044 -1.03723 4.10859 4.49531 0.561225 2.80642 4.4676 2.37211 1.28683 13.3449
17.6656 -50.0221 5.49817 12.7613 8.51091 16.4756 8.4754 11.173 14.1914 15.9657
4.76969 4.98123 6.5033 5.9191 -2.09355 -4.02062 -6.28001 -6.1804 4.89793 1.67066
4.3828 9.44508 15.3419 16.5411 8.23271 5.67922 3.05052 2.73646 7.19059 10.6627
11.3168 11.9592 11.0992 5.71836 -3.55408 5.59295 -2.79446 3.21171 -3.56316 2.4571
11.0229 8.347 12.4048 7.01003 9.50078 11.4274 10.8207 10.52 7.97603 8.64997
9.17339 9.42365 7.93955 7.39472 7.4132 6.05299 -5.46983 -8.98633 -7.20153 6.52574
5.93095 8.01044 6.28855 -9.21221 -10.9813 1.0988 7.08661 5.90828 -1.66959 5.6898
-136.589 -137.461 -137.779 10.2838 -55.5443 -54.5001 -54.5491 5.242 9.91261 5.31215
8.37989 11.0167 -55.7007 -55.6675 -55.0278 -54.7163 -60.918 -60.4128 -60.8991 -68.9616
-115.938 -119.745 -113.626 -120.462 -48.88 -49.4041 -47.4053 -47.1094 -47.3662 -47.0855
-14.6721 -14.6714 -17.0878 -52.5002 -52.3159 -52.0763 5.13292 1.50187 4.98649 4.95456
-51.877 -52.3075 -52.4296 141.784 151.131 -55.2213 -50.6791 13.3851 13.9619 11.5891
7.20206 11.4513 18.7264 4.23197 3.34751 4.68814 3.68946 -53.1982 -57.2601 -57.0693
-55.309 7.7664 15.0896 11.1283 4.0991 4.25119 10.1003 8.8541 9.54032 8.64929
10.427 12.4406 10.2915 5.82901 8.59609 8.24264 -54.0347 -50.0617 -48.465 91.2475
80.2847 84.2421 66.7809 72.7631 -4.78943 -2.90548 0.340173 -1.43852 7.65509 8.16747
7.70535 8.29563 8.05397 7.54859 7.09435 116.845 106.804 94.7624 -73.9409 -57.3442
-56.0554 -54.8754 -54.7166 -54.3351 -54.3238 163.48 139.761 161.889 161.999 7.7187
4.60031 10.6915 11.3998 7.2222 8.55765 7.45182 6.92131 6.17449 2.7581 -2.38896
4.7801 5.42189 6.0062 4.3766 6.68479 14.4887 9.08142 -12.8417 15.6244 14.2842
7.62626 10.7463 16.0175 9.16135 -12.6889 -13.6126 -11.6817 -2.85089 -4.88204 -13.1855
7.24025 5.30363 -14.7288 -16.3477 7.19527 4.85431 -1.0211 -3.90234 -54.9236 -45.8981
13.1443 1.94753 0.273652 -0.12128 6.01079 5.56696 6.5002 6.08996 6.04632 5.63062
0.339039 6.29233 6.92655 -0.402847 5.74989 4.76868 7.22383 6.71402 6.13874 106.222
86.6935 122.035 123.821 5.22226 4.94865 3.48486 -55.1362 5.15154 6.14303 5.91974
-9.55644 -12.5252 -0.183102 6.30001 6.79261 5.43059 8.11374 5.24074 6.93311 3.92334
37.4118 -53.1156 -55.207 -54.6987 -54.6676 -54.732 -2.92464 -4.29548 -12.5892 -12.4581
-12.4803 -3.43654 9.40696 3.13521 5.98657 7.07219 2.59985 2.38481 0.109001 -0.857748
-10.8882 -5.1935 -4.08773 -11.2637 -4.15061 -12.1395 5.63727 -11.3823 -12.4158 -2.44222
1.23416 6.40312 6.41248 5.84168 8.90693 0.285146 6.70698 -3.086 -1.07701 4.38729
-0.737733 7.28422 4.89737 -9.87118 9.06357 -0.619715 6.19813 1.06685 1.46024 4.85404
5.21122 4.29495 5.01152 3.13624 7.70529 8.94994 5.49992 6.11731 0.991945 3.47535
11.1298 5.57442 0.851083 -0.527413 3.65802 173.159 176.982 176.118 181.03 169.13
168.1 172.681 179.952 180.944 69.7643 73.951 55.155 -56.1442 -41.4284 -38.5468
-36.8013 -30.8878 -43.7873 -51.8116 -51.461 -55.2365 -46.7642 100.787 154.48 162.117
155.257 146.999 -56.5862 -56.1813 -56.5235 -56.2906 -55.8094 -56.2502 -54.9013 -55.205
-55.0467 4.05493 -0.231313 171.241 -18.3088 186.019 190.266 189.414 -51.2697 -47.2391
182.755 185.886 186.062 -16.4198 -51.0023 85.2737 -55.0406 -55.1698 -55.4219 -55.3909
-49.4404 189.389 -2.31688 189.506 185.525 189.1 7.38808 -64.2473 110.673 109.986
-55.8955 4.60312 -51.7084 -53.0032 -51.8203 -138.002 138.746 -54.8914 159.222 -51.9407
-120.672 -120.59 72.2949 6.99702 2.63527 168.088 164.701 -15.404 139.846 191.11
190.005 185.41 189.46 190.794 189.789 172.797 191.165 186.785 189.959 191.2
0.614023 0.609562 0.634858 0.703904 0.917633 1.62096 2.20616 -3.98661 1.35276 0.0254458
-4.09885 -5.86826 0.409301 0.0902681 -0.0017443 0.00519091 0.0102848 0.0057014 0.00108902 -0.000523878
-0.000272296 0.000244611 0.00114148 0.000610944 -54.0127 -52.2795 -133.931 -134.485 -47.9247 -48.3742
-49.0284 -47.7676 -48.2588 -48.9553 -49.5994 -47.2817 -95.1734 -74.8006 -48.7511 -47.1372
-74.2384 -48.6752 -51.111 -51.4647 -50.5874 -99.5497 -111.175 -129.433 -119.743 -119.564

U 3 2021 float
20.0063 -0.0457178 -0.215938 20.044 -0.0306497 -0.0740118 19.9291 -0.00638658 -0.0965315 19.9357 -0.0557699
-0.607005 20.0174 -0.0592167 0.0399661 20.0177 -0.0591119 0.0399987 20.168 -0.0780759 0.0575326
20.2327 -0.0862433 0.0655736 20.2782 -0.0911798 0.149321 20.2905 -0.11588 0.26365 20.2095
-0.117156 0.208505 19.9546 -0.0471996 0.0198765 19.9967 -0.0545567 0.0183597 20.0037 -0.0528253
0.00697763 19.8534 -0.0246282 0.0177237 19.8522 -0.0214068 0.0141819 20.0059 -0.0525346 0.0018928
19.8545 -0.0199941 0.00969871 20.0044 -0.0517215 0.00051371 19.8536 -0.0183483 0.00879834 20.0026
-0.0509034 -1.81277e-05 19.8522 -0.0168004 0.00849404 20.0011 -0.0501471 -0.000298881 19.8511 -0.0154696
0.00825582 19.9996 -0.0494679 -0.000479807 19.85 -0.0143117 0.00803724 19.9979 -0.0488164 -0.000605256
19.8489 -0.0132556 0.00784713 19.9962 -0.0481773 -0.000703036 19.8478 -0.0122956 0.00764636 19.9946
-0.0475524 -0.000738381 19.8467 -0.0114155 0.00755571 19.9926 -0.0469073 -0.000828049 19.8457 -0.0104898
0.00727815 19.8452 -0.0100087 0.00697812 19.9923 -0.0467005 -0.000867781 19.9996 -0.000340818 3.13068e-05
20 0 0 20 0 0 19.9996 -0.000340899 7.87589e-05 19.9983
-0.000786973 9.38758e-05 19.9984 -0.000796546 0.000278781 19.9942 -0.00154798 0.000367938 19.9941 -0.00151313
0.000999661 19.9788 -0.00279118 0.000335178 19.9796 -0.00311391 0.0035752 19.9465 -0.00544408 -0.00906736
19.9363 -0.00620595 -0.00798198 19.9389 0.0022997 -0.0143393 19.9278 -0.00539325 -0.0295228 19.9062
0.00529442 -0.0610281 20.2333 -0.0725392 0.00186683 20.0486 -0.0288053 -0.0566289 20.2354 -0.0716241
0.00514665 19.9274 -0.0890383 0.0305853 20.0245 -0.118308 0.0819561 20.2324 -0.0862119 0.0650547
19.8553 -0.0298392 0.0234534 19.308 0.119716 0.0102107 19.34 0.117172 0.0113112 19.368
0.111474 0.01136 19.3891 0.107196 0.0120388 19.4073 0.103419 0.0125372 19.4242 0.0998399
0.0127073 19.4402 0.0964581 0.012708 19.4551 0.0932763 0.012632 19.4694 0.0902432 0.0124883
19.4824 0.0873688 0.0123717 19.4971 0.0845641 0.0120883 19.5058 0.0831257 0.0118281 20
0 0 19.9996 -0.000341488 0.000137419 19.9985 -0.000794984 0.000490375 19.9946 -0.00151948
0.00171865 19.9801 -0.00323701 0.00602895 19.9198 -0.00874584 0.0107199 19.9195 -0.00792146 0.000987132
19.8499 -0.0165283 -0.0957765 19.7933 -0.0204589 -0.0681669 19.9557 -0.0509456 -1.02555 20.4351
-0.0675159 -0.935326 20.2164 -0.0533124 -0.509074 19.9305 -0.0557921 -0.636503 20.309 -0.163548
0.452877 20.3093 -0.164432 0.456334 20.0995 -0.249812 0.581341 19.9898 -0.239104 0.300602