# vtk DataFile Version 2.0
sampleSurface
ASCII
DATASET POLYDATA
POINTS 2021 float
-0.500032 0 0.11501 -0.499951 3.38813e-21 0.0392727 -0.789037 8.47033e-21 0.120673 -0.500013 -1.35525e-20
0.193965 1.00003 0 0.0485099 1.00003 0 0.0478584 0.475202 0 0.0353615
0.250044 1.41878e-20 0.0305359 0.2506 -5.42101e-20 0.117067 0.251301 0 0.203885 0.364989
0 0.203772 1.75002 0 0.113255 1.75002 0 0.0564279 2.50001 6.89146e-18
0.059229 2.21354 0 0.250758 2.50001 0 0.252875 3.25001 -3.47927e-17 0.0598775
3.25001 -1.69407e-21 0.253888 4.00001 5.60566e-18 0.0599857 4 0 0.253986 4.75
-1.79088e-17 0.0599988 4.75 8.47033e-22 0.253998 5.5 -2.79246e-17 0.0599999 5.5 -4.23516e-22
0.253999 6.25 1.01187e-17 0.06 6.25 0 0.254 7 2.93732e-17 0.06
7 0 0.254 7.75 -2.65294e-17 0.06 7.75 0 0.254 8.5
1.8923e-17 0.06 8.5 0 0.254 9.25 -2.88552e-17 0.06 9.25 -5.29396e-23
0.254 10 -2.64698e-23 0.254 10 0 0.06 -4.24997 0 0.0599042
-5 0 0.0599861 -5 0 0.253986 -4.24997 0 0.253912 -3.49995
0 0.0593815 -3.49994 0 0.253441 -2.74993 0 0.0570188 -2.74991 0
0.251316 -1.99991 0 0.0492276 -1.99987 0 0.242776 -1.24992 -1.69407e-21 0.03
-1.24985 1.23328e-17 0.222327 -1.24989 3.38813e-21 0.125756 -0.874924 2.08116e-17 0.03 -0.874929
0 0.122356 -0.124951 -8.47033e-22 0.03 -0.499941 0 0.03 -0.124922 -8.47033e-22
0.0385291 1.00021 0 0.231242 0.625368 0 0.203537 0.25004 -2.11758e-22 0.03
1.75003 0 0.247334 1.92873 1.69407e-21 0.441438 2.50001 0 0.447397 3.25
-1.69407e-21 0.447898 4 0 0.447986 4.75 0 0.447997 5.5 -4.23516e-22
0.447999 6.25 4.23516e-22 0.447999 7 0 0.448 7.75 -1.05879e-22 0.448
8.5 0 0.448 9.25 0 0.448 10 -2.64698e-23 0.448 -5
-8.47033e-22 0.447985 -4.24997 0 0.447919 -3.49993 0 0.4475 -2.74988 0
0.445609 -1.9998 6.77626e-21 0.437758 -1.24969 1.61411e-17 0.417681 -1.24976 -6.77626e-21 0.31973
-0.875161 7.70461e-18 0.216228 -0.875403 0 0.312476 -0.499924 -8.74138e-19 0.250039 -0.312433
0 0.250037 -0.312436 0 0.200025 -0.499924 0 0.200026 0.250062 3.38813e-21
0.24921 0.250039 -1.69407e-21 0.250046 0.250032 0 0.300069 0.437526 3.05948e-18 0.300066
0.625026 0 0.30005 1.00072 -8.23994e-18 0.326497 1.00196 0 0.423 1.75013
0 0.439575 1.75013 1.77877e-20 0.448245 1.00135 0 0.537141 1.00002 0
0.61834 1.74999 2.71051e-20 0.633055 2.49999 -3.38813e-21 0.641448 3.25 0 0.641907
4 -1.69407e-21 0.641985 4.75 -8.47033e-22 0.641996 5.5 -4.23516e-22 0.641998 6.25
0 0.641999 7 0 0.641999 7.75 0 0.642 8.5 5.29396e-23
0.642 9.25 -5.29396e-23 0.642 10 0 0.642 -5 0 0.641985
-4.24997 -1.69407e-21 0.641926 -3.49993 0 0.641557 -2.74988 0 0.639897 -1.99989
6.77626e-21 0.63382 -1.25099 2.55465e-18 0.614606 -1.25 -2.71051e-20 0.515981 -0.878244 0
0.50789 -0.875961 2.71051e-20 0.459694 -0.875609 0 0.410432 -0.498432 0 0.400603
-0.498071 -1.70762e-18 0.413126 -0.450805 0 0.413349 -0.45095 0 0.400955 0.250009
1.89735e-19 0.412703 0.25 2.71051e-20 0.425212 0.296872 1.00289e-18 0.425187 0.343754 -2.71051e-20
0.425153 0.343763 0 0.400146 0.250006 0 0.400175 1.00162 1.41488e-17 0.520353
-2 4.23516e-22 0.820145 -2.09502 -2.11758e-22 0.830091 -2 0 0.829497 -1.25123
0 0.813251 -1.25126 0 0.713737 -1.25101 6.77626e-21 0.62198 1.00059 0
0.714169 1.00094 0 0.809205 1.75018 0 0.82775 2.5 0 0.835521
3.25 0 0.835917 4 -1.69407e-21 0.835986 4.75 -8.47033e-22 0.835996 5.5
0 0.835998 6.25 0 0.835999 7 0 0.835999 7.75 0
0.836 8.5 0 0.836 9.25 0 0.836 10 0 0.836
-5 -8.47033e-22 0.835986 -4.24997 0 0.835935 -3.49995 0 0.835616 -2.74991
0 0.83419 -0.970118 0 0.703382 -0.87455 0 0.699864 -0.874264 -2.71051e-20
0.649852 -0.874033 -2.71051e-20 0.599873 -0.49698 0 0.599585 -0.497345 -9.21572e-19 0.612046
-0.450014 0 0.611892 -0.44938 2.71051e-20 0.599454 -2.00002 0 0.84097 -1.84639
-3.38813e-21 1.02215 -1.25185 0 1.01276 -0.896512 -3.38813e-21 0.900668 -0.908183 6.77626e-21
0.801076 -0.904022 -1.86347e-20 1.00093 0.624925 0 0.799916 0.249931 0 0.799891
0.249978 0 0.899916 0.249997 0 0.999939 0.999987 0 0.999957 1.75061
-2.1684e-19 1.02409 2.50003 0 1.0296 3.25 -1.69407e-21 1.02993 4 0
1.02999 4.75 0 1.03 5.5 0 1.03 6.25 2.11758e-22 1.03
7 0 1.03 7.75 0 1.03 8.5 5.29396e-23 1.03 9.25
0 1.03 10 0 1.03 -5 0 1.02999 -4.24998 0
1.02994 -3.49996 -8.47033e-22 1.02968 -2.74996 0 1.02849 -2.00026 0 1.02458
-0.87482 0 0.799893 -0.87491 0 0.899919 -0.49993 0 0.799862 -0.499958
7.6233e-19 0.849889 -0.312476 0 0.849885 -0.312472 0 0.799853 -1.25001 8.04681e-21
1.19601 -0.499979 5.29396e-23 1.10737 -0.731886 2.11758e-22 1.19997 -0.499981 0 1.19997
-0.124987 0 0.999933 -0.477759 -5.29396e-23 0.999933 -0.487556 -1.45584e-22 1.09995 0.250008
0 1.19997 1 0 1.19997 1.7507 0 1.22203 2.50003 -1.35525e-20
1.22368 3.25 0 1.22394 4 0 1.22399 4.75 4.23516e-22 1.224
5.5 0 1.224 6.25 2.11758e-22 1.224 7 0 1.224 7.75
1.05879e-22 1.224 8.5 0 1.224 9.25 0 1.224 10 2.64698e-23
1.224 -5 4.23516e-22 1.22399 -4.24999 -4.23516e-22 1.22395 -3.49998 0 1.22374
-2.75001 0 1.22279 -2.00077 0 1.21965 -1.24997 4.23516e-22 1.19997 -0.499969
-5.29396e-23 0.999933 -0.874942 0 0.999936 -0.499979 -1.32349e-23 1.09995 -2.75001 0
1.36967 -3.18711 4.23516e-22 1.41751 -2.75001 4.23516e-22 1.4171 -2.00072 3.38813e-21 1.29692
-2.00065 0 1.41474 -1.25823 6.35275e-21 1.40014 -0.980416 0 1.39998 -0.499986
0 1.39998 0.250009 0 1.39998 1 0 1.39998 1.75054 0
1.41682 2.50002 -1.35525e-20 1.41776 3.25 0 1.41796 4 4.23516e-22 1.41799
4.75 0 1.418 5.5 0 1.418 6.25 0 1.418 7
0 1.418 7.75 0 1.418 8.5 0 1.418 9.25 0
1.418 10 0 1.418 -5 0 1.41799 -4.24999 0 1.41797
-3.49999 -4.23516e-22 1.41781 -1.24998 0 1.39998 -2.80392 1.32349e-23 1.61143 -2.75
-1.32349e-23 1.6114 -2.0003 0 1.60983 -1.25396 2.64698e-23 1.60004 -1.12789 2.64698e-23
1.59999 -0.49999 1.05879e-22 1.59999 0.250008 0 1.59999 1.00001 4.23516e-22 1.59999
1.75038 0 1.61122 2.50002 0 1.61184 3.25 -4.23516e-22 1.61197 4
-4.23516e-22 1.61199 4.75 0 1.612 5.5 0 1.612 6.25 0
1.612 7 0 1.612 7.75 5.29396e-23 1.612 8.5 2.64698e-23 1.612
9.25 -1.32349e-23 1.612 10 -1.32349e-23 1.612 -5 0 1.61199 -4.24999
0 1.61198 -3.49999 0 1.61187 -1.24999 0 1.59999 -2.75 -1.32349e-23
1.63714 -2.64195 -2.11758e-22 1.80559 -2.00012 -8.47033e-22 1.80492 -1.25741 0 1.80004
-1.19082 -7.94093e-23 1.8 -0.499992 1.05879e-22 1.79999 0.250006 2.11758e-22 1.79999 1
0 1.8 1.75023 0 1.80561 2.50001 3.38813e-21 1.80592 3.25 0
1.80599 4 0 1.806 4.75 2.11758e-22 1.806 5.5 0 1.806
6.25 0 1.806 7 0 1.806 7.75 0 1.806 8.5
2.64698e-23 1.806 9.25 0 1.806 10 0 1.806 -5 0
1.806 -4.25 -2.11758e-22 1.80599 -3.49999 0 1.80594 -2.75 -1.05879e-22 1.8057
-1.24999 0 1.8 -2 -4.76456e-22 1.98532 -1.20969 -1.65436e-23 2 -0.499993
0 2 0.250006 0 2 1 0 2 1.75 0
2 2.5 0 2 3.25 0 2 4 0 2
4.75 -1.05879e-22 2 5.5 0 2 6.25 0 2 7
5.29396e-23 2 7.75 0 2 8.5 0 2 9.25 0
2 10 -1.32349e-23 2 -5 2.21817e-18 2 -4.25 1.05879e-22 2
-3.49999 0 2 -2.74999 0 2 -1.99999 -5.29396e-23 2 -1.24999
3.30872e-24 2 0.0956945 -5.42101e-20 0.203879 0.0632748 0 0.203876 0.0625511 0
0.250042 -0.403589 6.77626e-21 0.40138 -0.405779 7.7927e-19 0.38799 -0.406379 -6.77626e-21 0.375196
-0.499567 -1.35525e-20 0.375265 0.250006 -6.50521e-19 0.375144 0.156247 0 0.375155 0.156237
9.41901e-19 0.400212 0.203129 0 0.400201 0.249796 0 0.59991 0.249852 -1.0842e-19
0.587433 0.202953 0 0.587417 0.202888 6.50521e-19 0.599901 0.625121 -6.77626e-21 0.499953
0.717439 6.77626e-21 0.504955 0.625095 6.77626e-21 0.475379 0.343596 1.0842e-19 0.599918 0.343639
0 0.574939 0.296781 0 0.574964 0.249926 0 0.574977 0.62499 -4.2826e-18
0.549927 0.624917 4.55365e-18 0.599925 0.203133 0 0.412725 -0.449046 0 0.587135
-0.496581 5.42101e-20 0.587161 0.625036 -9.32414e-18 0.40006 0.625067 1.13164e-18 0.450032 0.249704
0 0.624881 0.155871 0 0.599866 0.155839 1.95156e-18 0.624853 0.249886 1.35525e-20
0.749873 0.062411 0 0.749846 0.0624478 -4.26227e-18 0.799869 -0.312472 0 0.749804
-0.499901 -3.38813e-21 0.749824 -0.691227 0 0.30453 -0.499912 3.02221e-18 0.300065 -0.875784
-3.11708e-18 0.361353 -0.592465 -2.71051e-20 0.40036 -0.499854 0 0.350135 -0.687111 1.35525e-20
0.350117 -0.68656 -2.71051e-20 0.40021 0.437526 -1.35525e-20 0.400108 0.437522 6.77626e-21 0.350086
0.250015 -2.51399e-18 0.35011 0.625027 3.38813e-21 0.350064 -0.592287 0 0.425286 -0.498048
0 0.425444 -0.873902 5.42101e-18 0.54992 -0.496663 0 0.574746 -0.591532 0
0.574798 -0.591729 0 0.599734 -0.149108 0 0.406489 -0.149477 -5.29396e-23 0.403592
-0.149678 0 0.406489 -0.451876 -2.1684e-18 0.499977 -0.451579 0 0.487563 -0.498366
0 0.487552 -0.498515 -1.0842e-19 0.499993 0.437553 0 0.450075 0.437532 -6.07153e-18
0.425113 0.254621 -1.25361e-19 0.496697 0.26485 -5.42101e-20 0.498023 0.264831 0 0.496529
0.254636 -2.30393e-19 0.49668 0.570241 0 0.499932 0.437665 -2.71051e-20 0.474991 0.437859
-2.71051e-20 0.49988 0.437372 -1.0842e-19 0.599915 0.249722 3.25261e-19 0.649874 0.43732 -5.42101e-20
0.649899 0.624872 0 0.649914 0.624883 -3.95734e-18 0.699913 0.43734 6.83047e-18 0.699894
0.249817 0 0.699869 -0.592227 0 0.624743 -0.498071 -2.71051e-20 0.624658 -0.499769
6.77626e-21 0.69979 -0.687025 0 0.699824 -0.150854 -1.03677e-18 0.599678 -0.151059 -6.77626e-21
0.605522 -0.127339 6.77626e-21 0.605681 -0.127867 0 0.599582 -0.406139 -4.40457e-20 0.699754
-0.406113 0 0.674749 -0.499634 0 0.674774 -0.18433 -4.23516e-22 0.674527 -0.163626
-4.23516e-22 0.678958 -0.165125 0 0.674537 -0.171868 4.23516e-22 0.674524 -0.14924 3.34737e-19
0.400169 -0.125737 0 0.400165 -0.12551 0 0.393854 -0.149076 -2.11758e-22 0.393877
-0.499925 -2.61564e-18 0.325088 -0.406241 0 0.325087 -0.4062 0 0.300069 -0.124901
0 0.300062 -0.218633 -3.27294e-18 0.299673 -0.218596 1.35525e-20 0.324664 -0.124851 0
0.325085 -0.126061 7.86047e-19 0.406473 -0.0785222 1.30782e-18 0.400166 -0.126118 3.38813e-21 0.41275
-0.0785648 0 0.412729 0.240678 1.0842e-18 0.500153 0.252614 -2.1684e-19 0.498317 0.252386
1.0842e-19 0.496231 0.241035 0 0.496114 0.228892 -1.35525e-20 0.496204 0.228835 6.77626e-21
0.498715 0.229819 2.71051e-20 0.500074 0.25248 0 0.499935 0.240657 -1.6263e-19 0.500957
0.264863 0 0.500154 0.264689 0 0.500951 0.437443 0 0.549896 0.437406
[...]
POINT_DATA 2021
FIELD attributes 2
p 1 2021 float
1.99295 1.42581 2.37815 4.33642 0.0463055 0.0441911 -4.22859 -6.07194 -7.72481 -6.18192 -4.3377
0.487703 0.456067 0.107754 0.31937 0.169204 -0.000371939 0.0219546 0.000592752 0.00868076 0.00429873
0.0100752 7.01205e-05 0.00546373 -0.00379665 0.00116861 -0.00466772 -0.000165532 -0.00378505 0.00022989 -0.00282968
0.000464376 -0.00117069 0.00216361 0 0 0.628449 0.623961 0.62381 0.628164 0.649485
0.648586 0.719924 0.716786 0.942401 0.939267 1.65482 1.77835 1.79353 2.24881 2.49244
-4.08952 1.35631 -4.14279 0.638394 -0.127619 -6.06169 0.562321 0.429627 0.180087 0.0195199
-0.00241447 0.000844442 -0.00114806 -0.00389562 -0.00418051 -0.00295351 -0.00285834 0.000773786 0 0.623379
0.627396 0.646168 0.707729 0.918535 1.97587 2.04719 3.14106 3.88965 7.2755 -3.43471
-1.11462 4.55481 -5.72317 -5.71488 -2.25751 0.304843 0.803958 1.01848 0.908862 0.507631
0.503539 0.784509 0.819758 0.41617 0.158623 0.0135857 -0.00725354 -0.00197428 -0.00242388 -0.0046782
-0.00479294 -0.00341298 -0.00302013 0.000716813 0 0.622689 0.626206 0.642525 0.695016 0.878372
1.87246 2.15793 5.16775 5.62031 4.85246 32.571 36.4704 52.0061 45.9464 4.8063
4.98774 3.40723 3.47918 2.69052 4.08156 0.777236 0.824313 0.803671 0.821599 1.41852
1.80916 1.86778 0.967595 0.469379 0.341895 0.122121 0.00789296 -0.00508863 0.00199326 0.00206279
-0.000623674 -0.00139503 -0.000612552 0.000246963 0.00220559 0 0.621813 0.624722 0.638086 0.680102
3.28733 3.78982 4.72341 4.79802 34.4674 32.8018 44.7453 50.8873 0.817751 0.797842
0.958837 1.73715 2.66389 1.16694 0.0575035 -4.94676 -5.34191 -2.75854 -0.240698 0.182479
0.0682306 -0.00987148 -0.0149087 -0.00462782 -0.00244144 -0.00408948 -0.00427899 -0.00302606 -0.00150718 -8.03174e-06
0 0.620843 0.623097 0.633251 0.664063 0.756152 2.78492 1.76766 5.26369 3.35856
0.646267 -0.578321 0.714878 0.338778 0.330758 0.16118 -1.69401 0.707618 0.309832 -0.970864
-0.403415 0.0902645 0.0605822 -0.00646471 -0.0142489 -0.00426445 -0.00160925 -0.00315495 -0.003341 -0.00206791
-0.000524796 0.000527964 0 0.619878 0.621485 0.628392 0.647863 0.692264 0.709598 0.858826
1.18433 0.353013 0.636575 0.627699 0.63293 0.671851 0.640718 0.582277 0.399076 0.0737242
-0.561078 -0.384842 0.0398313 0.0555828 -0.00764464 -0.0183325 -0.00747458 -0.00371455 -0.0047632 -0.00463363
-0.00314009 -0.00146016 -0.000362916 0 0.619016 0.620029 0.623954 0.581628 0.621071 0.621123
0.605339 0.51025 0.441411 0.0900152 -0.432035 -0.354422 -0.00627013 0.044722 -0.010998 -0.0218157
-0.00937095 -0.00451026 -0.00515981 -0.00481901 -0.00322514 -0.00151587 -0.00041109 0 0.618339 0.618858
0.620397 0.509744 0.620137 0.609524 0.58484 0.472098 0.441586 0.0985022 -0.361675 -0.337438
-0.0322326 0.0397674 -0.0113048 -0.0228404 -0.0100633 -0.00485646 -0.00540603 -0.00498979 -0.00336358 -0.00166158
-0.000546776 0 0.617903 0.618078 0.618045 0.613679 0.470972 0.578512 0.439337 0.101292
-0.339248 -0.331898 -0.0404046 0.0382517 -0.0113754 -0.0232489 -0.0104201 -0.00507698 -0.00555027 -0.00506796
-0.00340673 -0.00169756 -0.000571994 -9.13344e-05 0.61775 0.617797 0.617197 0.611138 0.577998 0.458533
-10.3269 -11.19 -11.8413 70.282 59.7691 43.6001 29.6302 2.87589 1.70345 4.3895
5.05347 3.82055 4.19992 5.71748 4.99781 2.02775 1.72096 2.15204 2.71852 3.37689
2.93682 3.57522 2.23633 1.87013 6.11047 56.3744 39.5574 1.93997 2.27988 3.47595
4.26923 1.97856 -4.59782 -11.4026 -9.97004 -3.08442 8.56155 7.01498 11.8689 4.77234
17.4904 20.7771 9.15467 10.5443 2.59818 1.46968 0.968652 1.64247 19.7662 36.9435
5.65088 39.7559 20.4149 18.9087 -60.4212 -60.1317 -60.4146 68.5499 68.4508 47.6388
44.8805 3.48543 3.17603 -5.99945 -0.349293 -0.483881 -6.05265 2.5992 4.03894 3.97365
2.74722 1.75616 1.68488 1.5925 0.919584 0.713646 -1.40447 17.0962 28.2119 13.391
7.33933 -58.0528 -57.5194 -60.846 -61.141 14.0134 19.2442 18.5841 -46.266 -42.7897
-44.4859 -45.1732 -59.7976 -59.2794 -58.9767 -59.0445 16.5657 15.703 11.8773 -29.5178
-28.2629 -45.7445 -37.2313 -60.6866 -47.3993 -60.758 -49.95 11.2627 4.00824 10.7207
12.2153 9.28524 9.54656 9.83148 4.21321 11.3849 0.213533 0.00385981 3.64765 3.34514
4.08049 4.30037 47.8478 68.4423 -61.2963 -58.2989 6.33512 11.3712 -54.1253 -55.5281
-61.1343 4.03271 6.06648 6.11402 6.19724 -31.6327 -40.3985 -49.2863 -29.6792 64.4401
60.8088 41.6948 41.4551 -45.0187 -57.3565 -11.548 -8.44167 -0.399979 -24.5844 -42.7754
43.0907 44.422 64.4275 66.5952 -54.0877 -52.3484 -53.2735 0.277139 -9.8368 -13.0016
-11.9763 -22.2266 -25.5175 -59.825 44.1083 21.9096 22.2125 11.7405 12.0517 12.2418
13.1891 22.0975 44.6029 10.8593 12.5239 11.9582 13.297 -61.7137 -61.6943 -60.9874
-60.9714 -60.4166 -60.0806 -59.8633 45.8783 66.8781 -61.458 -61.5486 -62.0235 -61.3891
-30.0745 -35.7865 -33.2263 -13.0817 -1.0986 -4.69059 -52.5492 -52.3605 -60.8555 -12.0675
1.10637 0.800138 -12.5214 -61.2677 -59.4744 -53.1313 -11.2637 -8.8019 -2.30636 2.7797
-7.63517 -5.95123 -18.7768 -39.4508 -43.258 -37.8369 -53.9862 -55.2108 -55.0512 -3.96905
-17.127 -18.2869 -4.95494 -58.501 -53.5925 -58.4998 -3.09849 -8.62934 -15.8243 -10.2269
67.6432 46.9741 -56.6065 -56.8291 -59.5482 -59.3779 -58.8088 -55.9623 -59.8746 -55.3191
-58.5015 -61.2644 -61.2771 -61.3758 -32.1941 -77.1208 -96.3281 -101.393 -104.255 -103.866
-49.3827 -50.4563 -54.7571 -48.7006 -51.5752 -100.044 -100.752 -72.1187 -35.3148 -60.9437
-61.4011 -60.9848 -58.979 -59.8844 -60.269 -60.1772 -60.4351 7.85742 7.12682 9.87432
-58.5986 -58.3702 -58.5547 -58.0515 -58.138 -58.4309 -58.9191 -57.5502 -57.5335 1.55135
1.30007 0.112657 0.647318 4.1335 4.60797 1.56107 -58.4306 -58.91 -59.6536 5.82919
6.60523 2.59794 0.578476 3.03363 -31.3859 -37.9605 -37.3437 -31.0976 -56.7719 -57.1764
-60.5833 -60.3979 -57.3769 -58.3717 -39.0641 -43.8288 -43.4749 -36.8357 -46.7226 -50.659
-53.8195 -53.9865 -52.5378 123.663 131.513 146.83 146.918 -60.9709 -58.4491 -59.1359
-60.6904 -60.7699 5.87238 3.706 4.62326 6.11713 -9.07776 -3.45175 -5.58596 -8.42082
-11.2634 -39.0058 -36.7629 -24.8117 -26.5743 -31.5219 -38.9978 -23.6943 -23.6761 31.2005
41.361 52.2124 38.0461 23.1791 18.9893 34.1557 26.1869 0.725501 0.885442 2.03558
33.7738 24.6766 16.5576 21.4339 2.46213 3.41173 4.08154 4.18915 3.24553 6.07337
6.27873 4.3216 -9.23753 -8.06753 -1.29013 -10.1406 14.776 9.21132 10.8888 -55.3056
-58.4063 -58.5454 -55.5374 -82.8285 -81.5815 -84.7532 -48.0556 -12.4704 -18.1862 -27.4933
-57.0476 -53.7027 -56.171 -57.449 -74.6513 -74.2857 -59.4978 -60.5343 -51.6402 -50.348
-52.8233 -52.6764 3.26688 3.32853 -1.20787 5.91543 5.54799 4.44125 5.16505 5.71703
6.06839 -55.456 -54.1305 -69.1833 -68.4672 78.8214 93.8174 85.3838 111.95 106.22
88.7179 90.071 161.772 164.061 153.202 121.537 98.3629 104.334 97.2434 117.531
-12.7634 -26.9447 -31.3695 -5.65923 -26.1461 -52.8791 -42.3594 -6.1435 93.8076 101.312
86.8972 78.3677 96.8116 88.5022 107.701 148.509 158.262 167.447 165.189 106.73
103.01 159.669 -33.6959 -8.15342 -39.8212 -29.3659 -49.785 140.264 140.123 115.662
110.654 110.28 115.549 139.631 139.003 108.146 167.2 170.78 172.005 172.277
173.741 186.661 186.84 174.838 173.298 -33.21 -40.9049 -33.0224 -59.0023 -52.5918
-43.1599 -42.2966 -40.8629 -25.1824 4.0921 -1.08164 0.939302 173.419 175.36 187.194
172.403 186.523 187.155 175.252 172.206 179.625 181.777 170.145 168.916 179.951
167.934 171.136 182.448 -54.7227 -38.4196 -36.7515 -58.1825 -58.1415 -58.3883 -36.174
-46.8741 -36.2117 -36.8211 -46.5023 -46.4557 -2.88795 -8.55961 -24.3518 -24.3674 -32.9274
-44.2456 -32.4651 -31.9582 -43.5112 -19.9473 -17.3902 -19.2529 115.497 140.202 138.202
139.109 114.767 109.401 170.072 169.95 170.518 167.796 136.479 108.497 113.671
137.23 -59.8688 -56.5133 -54.8345 -54.7006 -58.2016 -46.9358 89.615 92.7263 77.8259
-15.9136 -7.11308 -6.72116 -20.8992 54.4638 56.4113 70.193 73.7753 -57.1291 -56.2799
-56.6094 -57.1371 -58.6149 -58.8194 -59.1837 -59.3181 -59.4239 -59.5626 -59.412 -59.6232
-136.677 -109.803 -78.8017 -95.8932 -98.2802 -99.2933 -99.2841 -83.3949 -79.6253 -93.2797
-73.8075 -89.5497 -137.98 -140.957 -132.132 -97.0575 -97.7902 -57.9665 -57.4102 -58.1774
-59.192 -59.4974 -57.0558 -56.9648 8.05779 8.59935 14.3296 17.2589 14.3455 -52.7937
-52.0999 -46.8999 -47.0379 -47.5897 -47.3819 -47.3546 -47.1612 13.5399 13.1388 17.6753
8.10866 7.88931 9.46409 9.96222 9.99284 8.33821 7.14022 7.95054 12.374 15.8032
13.709 0.970963 -0.875134 -2.94041 6.76355 5.83463 4.75368 6.31596 6.90105 -54.3541
-55.3872 -58.8316 -58.0255 -49.9184 -51.0817 14.2422 16.5433 17.9944 -48.2658 -51.2378
-51.4088 -47.9291 -47.1448 11.4675 11.1762 11.2227 9.68481 6.77743 -7.70982 -6.37398
5.37831 5.83047 5.88338 -49.7754 -50.2063 146.116 148.121 140.466 136.601 112.634
117.841 125.28 120.557 184.577 185.848 182.141 178.386 -58.9825 -59.0254 -55.5718
-55.3985 169.692 183.396 185.08 173.038 174.488 186.585 171.079 182.182 169.677
179.331 -16.0975 -18.5157 -23.0968 -27.4266 -26.0238 -22.4226 -7.06096 -1.77527 -2.18914
-7.33157 -12.3236 -11.9834 -1.09852 -9.14 -10.0172 -15.1818 -18.2794 -8.55432 -9.22539
-25.1087 -20.4568 -9.67947 -0.703442 -3.03851 6.33454 -3.30151 6.3176 7.34548 2.92607
3.47518 4.24793 3.88039 7.95008 6.12092 3.96181 5.89509 -18.9992 -15.9104 -26.3715
-21.3766 -57.8635 -59.6708 -60.4331 -60.4366 2.81015 2.94343 5.09158 5.53256 4.35431
4.94705 -15.0693 -40.8888 -57.6499 -65.7826 -53.9345 -32.646 -60.7572 11.2692 10.6756
10.701 -3.62127 -0.601587 12.4173 18.12 9.33826 25.4392 22.0735 10.9594 1.05453
6.73977 8.36263 13.4519 11.6825 6.33664 -56.0417 -44.5564 -50.1256 -12.8629 -43.6759
-24.7843 -60.4052 -83.7007 107.903 91.8558 105.626 107.601 112.176 111.149 172.908
172.032 173.282 172.606 171.295 185.958 185.959 185.197 -61.1493 -61.3611 174.519
-58.449 -58.4416 -59.0334 -59.1535 -58.8944 -59.4546 -155.339 -142.062 -141.904 -138.564
-163.09 -141.772 -136.151 -136.502 -121.864 -117.743 -83.0296 -73.6248 -74.0867 -71.464
-121.466 -123.405 -58.807 -57.7485 -56.7677 -59.052 10.7688 8.31646 11.4277 8.81286
11.832 12.8626 13.3061 14.2501 15.0666 -57.7614 -56.8105 -58.994 -57.5585 -55.1921
-54.898 -55.0425 -57.3307 -6.62439 -0.817277 -1.9062 -5.22903 9.07835 9.38288 6.50608
5.53451 7.16015 9.28536 8.52557 6.23884 1.54108 8.0342 6.97785 6.82046 9.19934
11.0646 9.80971 12.6974 12.0003 -57.4088 -57.8456 -56.797 -56.9545 -57.0099 -56.6716
-56.0687 -54.9942 -56.3656 -56.373 -56.2648 -51.8672 -53.3068 -74.043 -73.0283 -57.9213
-60.4986 -77.8243 -68.8395 -78.5704 -125.597 -130.44 -138.078 -79.7833 -97.6341 -107.926
-80.6352 -99.0882 128.381 113.185 148.133 151.392 -57.6304 -57.0031 -58.0526 -58.0555
-55.7256 143.968 167.936 146.222 -51.0059 -50.1531 -50.6572 -51.4562 -51.3159 -51.331
-51.2591 -49.5596 -7.90876 -9.24172 -11.6124 -10.6778 -14.3241 -16.6034 -18.7554 -16.5282
-17.4886 74.89 85.5961 -59.8922 51.0173 76.6056 65.089 74.717 60.2261 12.2138
8.96038 44.6338 35.7199 8.14223 9.00304 3.2176 4.99949 4.78253 7.46993 6.32797
6.81017 7.17999 7.96789 -54.0921 -53.6097 -52.9841 -53.5563 -1.57495 -1.29402 -1.90935
1.83842 5.43655 4.78725 6.97923 6.34789 -51.8117 -52.5067 -52.2309 137.905 135.93
171.199 184.761 189.045 189.332 186.841 185.318 -59.289 -59.034 -59.2881 -59.0411
-55.835 -47.0631 -47.9013 -48.6258 -47.8149 -48.2321 -49.5542 -57.4034 -57.424 -58.1113
-60.2423 -60.0111 -59.9899 -60.172 -59.8443 -58.3899 -116.754 -112.188 -140.126 -116.403
-137.678 -124.758 -126.326 -137.187 -57.488 -60.3475 -58.619 -57.8727 14.8195 13.4013
12.5347 13.7288 13.6408 14.3028 -36.9907 -36.5454 -31.2994 -30.5344 -42.4607 -43.1656
-48.0272 -47.5277 -53.346 -53.4064 -46.992 -54.0653 -53.6435 -6.77651 -1.27982 -12.2994
-0.358746 1.15795 7.63802 7.17911 7.55012 3.62191 10.4435 6.95279 8.41833 10.0931
10.7839 10.6781 10.801 12.6344 12.3122 1.41002 12.3996 14.8072 16.0729 3.04911
2.45189 2.18334 2.99654 -61.7245 -60.7919 -54.8234 -59.1979 -45.2183 -44.7375 -39.9212
-45.1012 -46.5672 -51.2606 -52.8519 -50.9767 -51.0691 -50.9537 -48.837 -54.6913 -48.5511
3.28786 -49.3444 -50.6502 140.536 131.271 129.025 128.809 129.193 113.57 106.079
188.628 188.123 187.109 -52.3021 -52.7316 0.307846 0.877523 1.89977 -29.2134 -30.1052
186.092 186.923 180.422 183.38 181.933 181.563 -32.612 -28.3597 -1.5022 -6.28126
-4.42895 -1.55483 -23.7024 -12.0981 -8.86631 -11.7774 -18.4484 -4.62014 80.7327 56.5128
60.9689 21.1139 21.5145 68.0733 110.758 10.6252 7.38413 -3.10762 -3.37945 6.80557
7.5917 7.86778 6.11219 6.54054 24.6618 16.4708 -0.24349 19.9121 -2.67533 3.14753
8.0923 8.0092 68.1221 110.295 -56.5588 -57.8761 18.2806 90.2715 108.201 100.47
92.5801 108.155 109.24 126.652 134.37 143.235 -59.2811 80.0917 71.9015 48.5425
12.5136 18.3339 16.51 -76.4711 -58.8779 -58.8713 -58.8733 -56.2251 -56.1994 -60.7584
-56.2863 -60.4006 -61.2157 25.0848 -7.51473 5.88769 10.8428 11.1738 -2.35212 -2.47193
-3.77758 -57.3043 -56.3743 -1.60569 2.04074 2.35524 -60.3142 -59.7092 -58.7325 8.29979
8.01098 3.90921 -59.3329 41.3743 47.8011 -70.4069 -62.5947 15.1115 12.8281 8.7219
6.57136 4.72382 8.24608 6.62112 -55.2225 -55.1369 -53.9374 -53.993 -56.7311 -52.9415
-52.4753 -55.6048 -55.8636 -55.8766 -55.3806 -56.4903 -56.0768 -55.8612 -55.6555 4.05144
-52.4607 -58.6576 -57.7796 100.284 128.787 144.455 154.863 167.911 162.663 160.476
148.523 188.206 -55.3947 -56.879 -53.5848 -5.83591 -8.84785 -1.60318 -51.7806 -51.7378
-51.8059 -52.1085 -55.2934 -48.7592 -50.6746 -49.4467 -48.7699 -49.4932 27.3927 18.8314
-113.516 -121.232 -121.204 -121.83 -122.16 -74.345 -97.2261 -74.3461 14.2598 17.9772
-11.8914 12.2303 11.5986 -5.59244 -7.28053 4.10052 2.22147 0.824508 0.109882 -1.3802
-2.79313 -1.37661 3.85144 3.86781 -0.417294 2.26193 3.90502 1.89946 0.623436 14.1453
18.67 -51.6436 5.34133 12.6121 8.1569 16.5797 7.7795 10.8097 14.0504 15.9346
4.20756 4.24436 6.17223 5.59966 -3.20384 -5.32675 -7.84709 -7.7436 4.30171 0.826482
3.79272 9.39045 15.9593 17.3038 8.16408 5.20115 2.30713 1.99451 6.85223 10.6863
11.4167 12.1792 11.24 5.24466 -4.66269 5.10935 -3.83666 2.4005 -4.67154 1.68131
11.4042 8.48536 12.9185 6.7434 9.76396 11.905 11.1682 10.8346 7.81918 8.81649
9.39339 9.67284 7.71384 7.25091 7.28345 5.63261 -7.20166 -11.0628 -8.95195 6.02436
5.44079 7.88943 5.79543 -11.0069 -12.7635 0.390505 6.84106 5.47067 -2.61183 5.21281
-142.151 -142.46 -142.432 11.2803 -58.2692 -57.2339 -57.3113 4.87907 9.79719 4.89743
8.19256 11.7011 -58.4785 -58.3498 -57.8904 -57.5566 -61.6011 -61.1419 -61.5637 -69.4109
-116.982 -121.348 -114.461 -121.882 -51.0636 -51.5975 -49.2322 -48.9273 -49.2738 -48.8854
-14.2852 -14.292 -16.6806 -53.9391 -53.7109 -53.3748 4.75532 0.868496 4.65194 4.55524
-53.104 -53.662 -53.8831 141.228 150.683 -58.8263 -52.2879 14.2288 15.0491 11.6341
6.79524 11.3873 18.9927 4.19803 3.34447 4.7498 3.74882 -54.1657 -58.5718 -58.2373
-56.4811 7.54294 15.6813 11.2749 3.87094 4.02738 10.4036 9.01444 9.6869 8.82421
10.5551 12.7613 10.4347 5.65639 8.51418 8.1636 -56.5216 -52.2673 -50.3238 91.3239
80.4409 84.344 66.9844 72.9178 -5.48626 -3.42684 -0.023768 -1.90086 7.71382 8.19912
7.87835 8.24767 8.03175 7.53837 6.99103 116.91 106.884 94.8426 -74.2739 -58.3923
-57.2763 -56.0348 -55.9997 -55.4948 -55.568 163.528 139.835 161.943 162.058 8.9644
6.04487 11.971 12.7054 7.46944 8.96594 7.66145 7.10934 6.3121 2.43707 -3.24588
4.72993 5.40951 5.99194 4.16032 6.77298 15.2212 9.2124 -15.0522 16.3037 14.3054
7.24726 10.5499 16.9467 9.50922 -15.1876 -16.093 -14.1164 -4.02089 -6.38377 -15.4316
7.13597 4.77424 -17.1356 -18.6974 6.47791 4.13057 -2.28594 -5.00197 -56.9557 -47.4045
14.3723 1.45542 -0.409408 -0.831236 5.8301 5.38954 6.36271 5.85965 5.80577 5.35813
-0.626574 5.91556 6.72665 -1.36374 5.46593 4.40894 7.01882 6.44394 5.87486 106.338
86.895 122.091 123.883 4.8296 4.51908 2.86915 -57.2512 4.75131 5.93567 5.67334
-10.671 -13.8422 -0.593531 6.03438 6.53239 5.41579 8.50535 5.01797 7.18533 3.46959
34.8593 -54.2227 -56.416 -55.8674 -55.9171 -55.9965 -3.09524 -4.57106 -14.7033 -14.5628
-14.586 -4.54443 8.901 2.38861 5.43816 6.60886 1.79234 1.62855 -0.832692 -1.80555
-13.1748 -6.898 -5.63854 -13.4513 -5.63231 -14.3321 5.10729 -13.1951 -14.5185 -3.6092
0.64816 6.16997 6.12811 5.56688 9.03818 -0.694031 6.4317 -3.9022 -1.82065 4.28296
-1.61386 7.18132 4.68716 -11.0434 9.13739 -1.35665 5.98271 0.549383 1.02342 4.6498
4.99741 4.09117 4.80679 2.37807 7.69051 8.94556 5.12219 5.81566 0.419863 3.16202
11.4579 5.59276 0.217463 -1.20414 3.10084 173.021 176.885 176.146 181.054 169.168
168.131 172.705 179.886 180.887 67.7135 72.0213 52.8776 -58.288 -41.9475 -38.7478
-37.0459 -30.561 -44.3662 -54.0545 -53.7457 -57.742 -47.7216 100.314 154.503 162.137
155.289 147.016 -59.88 -59.5547 -59.6206 -59.5985 -58.4763 -59.5919 -57.0623 -57.3803
-57.2063 5.58449 1.29074 171.292 -16.8455 186.027 190.248 189.411 -53.1303 -48.4908
182.777 185.905 186.072 -15.5573 -53.2989 85.3591 -56.2393 -56.3663 -56.6068 -56.5834
-50.8536 189.358 -0.746974 189.518 185.552 189.114 7.87947 -64.1547 109.8 109.112
-57.8613 4.66489 -53.7219 -55.6326 -53.9219 -142.818 138.772 -56.1322 158.87 -54.1376
-122.244 -122.155 72.5409 6.92733 2.28171 168.109 164.727 -15.3103 139.887 191.102
190.01 185.416 189.417 190.795 189.797 172.837 191.159 186.799 189.963 191.193
0.628465 0.623967 0.649477 0.719047 0.933358 1.63549 2.21973 -4.01756 1.34374 0.0115034
-4.12341 -5.89737 0.400993 0.0862911 -0.00552985 0.000122822 0.0047022 0.000586925 -0.00328688 -0.00416442
-0.0032811 -0.00230384 -0.000658131 0.000212335 -56.3653 -54.7027 -135.823 -136.408 -49.9676 -50.488
-51.2369 -49.8069 -50.3684 -51.1763 -51.8758 -49.2527 -95.7235 -75.0705 -50.9351 -48.9799
-74.5335 -50.8596 -53.4959 -53.8355 -52.9579 -99.7662 -111.997 -131.239 -121.345 -121.143

U 3 2021 float
20.0069 -0.0500968 -0.214488 20.0445 -0.034618 -0.073476 19.9293 -0.00899293 -0.0963468 19.937 -0.061357
-0.604712 20.019 -0.0663224 0.04073 20.0193 -0.0662072 0.0407542 20.1696 -0.0869973 0.058012
20.2343 -0.095954 0.0659339 20.2797 -0.101847 0.149556 20.2917 -0.130569 0.265515 20.2109
-0.131207 0.210528 19.9565 -0.0531088 0.0211138 19.9978 -0.0612455 0.0193407 20.0045 -0.0594248
0.00787159 19.8566 -0.0280331 0.0196023 19.8551 -0.0244007 0.0160831 20.0067 -0.0590328 0.00277096
19.8576 -0.0227292 0.0117097 20.0052 -0.0580624 0.00139191 19.8567 -0.020777 0.0110216 20.0035
-0.0570688 0.000830219 19.8553 -0.0189367 0.0108764 20.002 -0.0561454 0.000498037 19.8541 -0.0173502
0.0107141 20.0005 -0.0553283 0.000260321 19.853 -0.0159815 0.0105181 19.9988 -0.0545519 7.58909e-05
19.8519 -0.0147416 0.010318 19.9972 -0.0537955 -7.42053e-05 19.8508 -0.0136213 0.010082 19.9955
-0.0530694 -0.000146682 19.8498 -0.0126011 0.00996323 19.9936 -0.0523157 -0.000267566 19.8488 -0.0115266
0.00966224 19.8483 -0.0109681 0.00934412 19.9932 -0.0520708 -0.000338517 19.9996 -0.000383885 3.1343e-05
20 0 0 20 0 0 19.9996 -0.000384245 7.90808e-05 19.9983
-0.000885439 9.46086e-05 19.9984 -0.00089711 0.000280514 19.9942 -0.00175066 0.000367526 19.9941 -0.00171299
0.00100278 19.9788 -0.00321769 0.000331296 19.9795 -0.00355203 0.00358049 19.9466 -0.00674586 -0.00908226
19.9363 -0.00731587 -0.00813976 19.9389 0.000830917 -0.0144098 19.9279 -0.00735261 -0.0295657 19.9062
0.00321514 -0.0612192 20.2345 -0.0805504 0.00240977 20.0491 -0.0327232 -0.056205 20.2366 -0.0797718
0.00577906 19.9307 -0.0990445 0.0336782 20.0264 -0.130778 0.0843405 20.234 -0.0959167 0.0654157
19.859 -0.0339089 0.0252952 19.2945 0.135888 0.0122473 19.3277 0.133021 0.0132391 19.3569
0.126808 0.0132713 19.3795 0.122256 0.0140691 19.3997 0.118091 0.0146944 19.4184 0.11404
0.014954 19.4359 0.11015 0.0150165 19.4522 0.106454 0.014981 19.4676 0.102914 0.0148566
19.4817 0.0996052 0.0147539 19.4978 0.0961412 0.0144848 19.5074 0.0942252 0.0142289 20
0 0 19.9996 -0.000385045 0.00013812 19.9985 -0.000897204 0.000492804 19.9945 -0.00171815
0.00172477 19.98 -0.00368817 0.00603956 19.9196 -0.00986201 0.0106157 19.9194 -0.00898671 0.000757519
19.8504 -0.019066 -0.0960325 19.7936 -0.023025 -0.0686605 19.9586 -0.0579141 -1.0201 20.4394
-0.0794818 -0.92361 20.2184 -0.0633012 -0.505162 19.932 -0.0614741 -0.634105 20.3089 -0.183448
0.458287 20.3093 -0.184428 0.461808 20.1019 -0.277846 0.587826 19.9947 -0.264279 0.307744