# vtk DataFile Version 2.0
tracks
ASCII
DATASET POLYDATA
POINTS 2595 float
-1.001 -0.05 0.0011 -0.900789 -0.0500216 0.00109731 -0.800577 -0.0500431 0.00109463 -0.700366 -0.0500646
0.00109196 -0.600155 -0.050086 0.00108929 -0.499943 -0.0501074 0.00108663 -0.424945 -0.0501113 0.00107894
-0.349947 -0.0501523 0.00106884 -0.274949 -0.0501929 0.00105884 -0.19995 -0.0502331 0.00104893 -0.124952
-0.0502729 0.00103912 -0.0499538 -0.0502824 0.00103936 0.0250446 -0.0502914 0.0010481 0.100043 -0.0503005
0.00105692 0.175041 -0.0503096 0.00106581 0.25004 -0.0503189 0.00107478 0.400037 -0.0503129 0.00109089
0.550035 -0.0503112 0.00110514 0.700032 -0.0503095 0.00111957 0.85003 -0.0503077 0.00113419 1.00003
-0.050306 0.00114901 1.15003 -0.0503167 0.00115621 1.30002 -0.0503225 0.0011607 1.45002 -0.0503283
0.00116521 1.60002 -0.0503341 0.00116974 1.75002 -0.05034 0.00117429 1.90002 -0.0503486 0.00117716
2.05002 -0.0503551 0.0011791 2.20001 -0.0503617 0.00118105 2.35001 -0.0503683 0.001183 2.50001
-0.0503749 0.00118496 2.65001 -0.0503829 0.00118601 2.80001 -0.0503911 0.00118671 2.95001 -0.0503992
0.00118741 3.10001 -0.0504074 0.00118811 3.25001 -0.0504156 0.00118882 3.40001 -0.0504235 0.0011891
3.55001 -0.0504324 0.00118969 3.70001 -0.0504413 0.00119027 3.85001 -0.0504502 0.00119086 4.00001
-0.0504591 0.00119145 4.15 -0.0504669 0.00119153 4.3 -0.0504766 0.00119221 4.45 -0.0504862
0.00119289 4.6 -0.0504959 0.00119357 4.75 -0.0505056 0.00119426 4.9 -0.0505133 0.00119426
5.05 -0.0505235 0.0011951 5.2 -0.0505336 0.00119594 5.35 -0.0505438 0.00119678 5.5
-0.050554 0.00119763 5.65 -0.0505616 0.00119758 5.8 -0.0505721 0.00119859 5.95 -0.0505825
0.00119959 6.1 -0.050593 0.00120059 6.25 -0.0506035 0.0012016 6.4 -0.050611 0.00120153
6.55 -0.0506217 0.00120266 6.7 -0.0506324 0.0012038 6.85 -0.0506431 0.00120494 7
-0.0506539 0.00120609 7.15 -0.0506613 0.001206 7.3 -0.0506721 0.00120724 7.45 -0.050683
0.00120849 7.6 -0.0506938 0.00120974 7.75 -0.0507047 0.00121099 7.9 -0.0507121 0.00121089
8.05 -0.050723 0.00121222 8.2 -0.050734 0.00121356 8.35 -0.050745 0.0012149 8.5
-0.050756 0.00121625 8.65 -0.0507633 0.00121613 8.8 -0.0507743 0.00121755 8.95 -0.0507853
0.00121897 9.1 -0.0507964 0.00122039 9.25 -0.0508075 0.00122181 9.4 -0.0508147 0.00122168
9.55 -0.0508722 0.00122382 9.7 -0.0509812 0.00122671 9.85 -0.0511418 0.00123035 10
-0.0513541 0.00123473 -1.001 -0.05 0.0537316 -0.900807 -0.0501064 0.0535764 -0.800614 -0.0502131
0.053394 -0.700421 -0.0503434 0.053178 -0.600229 -0.0505049 0.0529264 -0.500035 -0.0506974 0.0526394
-0.425004 -0.050946 0.0524175 -0.349973 -0.0512841 0.0521288 -0.274943 -0.0516696 0.0518612 -0.199912
-0.052089 0.0516359 -0.124879 -0.052493 0.0514928 -0.0498864 -0.052761 0.0515301 0.0251065 -0.0529831
0.0516962 0.100099 -0.0532006 0.0519308 0.175092 -0.0534275 0.0522135 0.250087 -0.0536495 0.0525312
0.400077 -0.0540394 0.053167 0.550067 -0.0544268 0.0536821 0.700057 -0.0547727 0.0541486 0.850047
-0.055077 0.054566 1.00003 -0.0553478 0.0549338 1.14697 -0.0557189 0.0552125 1.2939 -0.0560584
0.0554725 1.44083 -0.056395 0.0556988 1.58776 -0.056729 0.0558913 1.7052 -0.0569938 0.0560181
1.71416 -0.0570148 0.0560265 1.72313 -0.0570359 0.0560348 1.73209 -0.0570571 0.056043 1.74105
-0.0570783 0.0560511 1.75002 -0.0570997 0.0560591 1.90002 -0.057459 0.0561925 2.05002 -0.057814
0.0563087 2.20001 -0.0581651 0.0564072 2.35001 -0.0585124 0.0564881 2.50001 -0.0588558 0.0565513
2.65001 -0.0592043 0.0566034 2.80001 -0.0595525 0.0566488 2.95001 -0.0598999 0.0566866 3.10001
-0.0602464 0.0567166 3.25001 -0.0605921 0.0567389 3.40001 -0.0609387 0.0567562 3.55001 -0.0612867
0.0567727 3.70001 -0.0616333 0.0567872 3.85001 -0.0619783 0.0567997 4.00001 -0.0623217 0.0568101
4.15 -0.0626629 0.056818 4.3 -0.063008 0.056827 4.45 -0.0633515 0.0568353 4.6
-0.0636936 0.0568428 4.75 -0.0640342 0.0568495 4.9 -0.0643698 0.0568539 5.05 -0.0647109
0.0568602 5.2 -0.0650507 0.0568662 5.35 -0.065389 0.0568718 5.5 -0.065726 0.056877
5.65 -0.0660561 0.0568796 5.8 -0.0663927 0.0568848 5.95 -0.0667281 0.0568897 6.1
-0.0670622 0.0568943 6.25 -0.0673951 0.0568988 6.4 -0.0677199 0.0569002 6.55 -0.068052
0.0569047 6.7 -0.0683829 0.056909 6.85 -0.0687126 0.0569132 7 -0.069041 0.0569172
7.15 -0.0693607 0.0569179 7.3 -0.0696881 0.0569219 7.45 -0.0700143 0.0569259 7.6
-0.0703394 0.0569297 7.75 -0.0706632 0.0569334 7.9 -0.0709778 0.0569336 8.05 -0.0713004
0.0569374 8.2 -0.0716219 0.0569412 8.35 -0.0719423 0.0569449 8.5 -0.0722615 0.0569487
8.65 -0.0725709 0.0569488 8.8 -0.0728888 0.0569526 8.95 -0.0732055 0.0569563 9.1
-0.073521 0.0569599 9.25 -0.0738354 0.0569634 9.4 -0.0741396 0.056963 9.55 -0.074453
0.0569666 9.7 -0.0747659 0.0569701 9.85 -0.0750783 0.0569736 10 -0.0753901 0.0569771
-1.001 -0.05 0.106363 -0.900818 -0.0500783 0.106138 -0.800636 -0.0501545 0.105865 -0.700455
-0.0502574 0.105546 -0.600274 -0.0504308 0.105005 -0.50009 -0.0506742 0.104244 -0.424996 -0.0509618
0.103659 -0.349901 -0.0513108 0.103055 -0.274807 -0.0516644 0.10252 -0.199711 -0.0519636 0.102092
-0.124607 -0.0523071 0.101991 -0.0496046 -0.0525568 0.102104 0.0253975 -0.0527518 0.102335 0.100399
-0.0529339 0.102647 0.175401 -0.0531365 0.103044 0.250411 -0.0533592 0.103526 0.400346 -0.0537696
0.104525 0.550283 -0.0541783 0.105397 0.70022 -0.054548 0.106181 0.850157 -0.0548868 0.106799
1.00009 -0.0551944 0.10725 1.15007 -0.0556376 0.107515 1.30006 -0.0559365 0.107813 1.45005
-0.0561841 0.108089 1.60003 -0.0564257 0.108333 1.75002 -0.0566613 0.108544 1.90002 -0.0569706
0.108689 2.05002 -0.0572168 0.108845 2.20001 -0.0574572 0.108984 2.35001 -0.057695 0.109106
2.50001 -0.0579303 0.109212 2.65001 -0.0582217 0.109281 2.80001 -0.0584715 0.109349 2.95001
-0.05872 0.10941 3.10001 -0.0589679 0.109462 3.25001 -0.0592149 0.109508 3.40001 -0.0595046
0.109543 3.55001 -0.0597583 0.109576 3.70001 -0.06001 0.109608 3.85001 -0.0602601 0.109637
4 -0.0605087 0.109665 4.15 -0.0607921 0.109691 4.3 -0.0610457 0.109712 4.45
-0.0612974 0.109733 4.6 -0.0615475 0.109753 4.75 -0.0617961 0.109772 4.9 -0.062073
0.109795 5.05 -0.0623246 0.109811 5.2 -0.0625745 0.109825 5.35 -0.0628229 0.10984
5.5 -0.06307 0.109854 5.65 -0.0633405 0.109875 5.8 -0.0635895 0.109886 5.95
-0.063837 0.109897 6.1 -0.0640831 0.109907 6.25 -0.0643281 0.109918 6.4 -0.0645925
0.109937 6.55 -0.0648386 0.109945 6.7 -0.0650833 0.109953 6.85 -0.0653268 0.10996
7 -0.065569 0.109968 7.15 -0.0658276 0.109986 7.3 -0.0660705 0.109992 7.45
-0.0663121 0.109998 7.6 -0.0665525 0.110003 7.75 -0.0667918 0.110008 7.9 -0.0670446
0.110026 8.05 -0.0672842 0.11003 8.2 -0.0675225 0.110033 8.35 -0.0677597 0.110037
8.5 -0.0679957 0.11004 8.65 -0.0682431 0.110058 8.8 -0.0684792 0.110061 8.95
-0.0687139 0.110063 9.1 -0.0689475 0.110065 9.25 -0.0691799 0.110068 9.4 -0.0694216
0.110084 9.55 -0.0696543 0.110085 9.7 -0.0698864 0.110086 9.85 -0.070118 0.110087
10 -0.0703492 0.110088 -1.001 -0.05 0.158995 -0.900796 -0.0500888 0.15877 -0.800593
-0.0501937 0.158424 -0.700392 -0.0503559 0.157688 -0.600196 -0.0505883 0.156476 -0.499992 -0.0508829
0.154636 -0.42472 -0.0514909 0.153035 -0.349437 -0.0519592 0.152117 -0.274149 -0.0523569 0.151557
-0.19886 -0.0527527 0.151267 -0.1237 -0.0530711 0.151323 -0.0487806 -0.0531955 0.151486 0.0261371
-0.0532755 0.151967 0.101053 -0.0534169 0.152673 0.175968 -0.0535852 0.153471 0.250944 -0.0537407
0.154298 0.400783 -0.0539551 0.155719 0.550624 -0.0544651 0.156897 0.700468 -0.0549401 0.157652
0.850313 -0.0553407 0.158251 1.00014 -0.0557101 0.158683 1.15012 -0.0562158 0.15893 1.30009
-0.0565766 0.159208 1.45007 -0.0568437 0.159477 1.60005 -0.0570333 0.159732 1.75002 -0.0572171
0.159955 1.90002 -0.0574755 0.16011 2.05002 -0.0576704 0.160277 2.20002 -0.0578531 0.160429
2.35001 -0.0580271 0.160566 2.50001 -0.0581986 0.160686 2.65001 -0.0584266 0.16077 2.80001
-0.0586129 0.160852 2.95001 -0.0587969 0.160928 3.10001 -0.0589792 0.160997 3.25001 -0.0591609
0.161058 3.40001 -0.0593852 0.161108 3.55001 -0.0595737 0.161157 3.70001 -0.0597593 0.161205
3.85001 -0.0599426 0.161252 4 -0.0601244 0.161296 4.15 -0.060341 0.161338 4.3
-0.0605279 0.161377 4.45 -0.0607122 0.161414 4.6 -0.0608942 0.161451 4.75 -0.0610748
0.161488 4.9 -0.0612835 0.161528 5.05 -0.0614671 0.16156 5.2 -0.0616485 0.161592
5.35 -0.0618279 0.161624 5.5 -0.062006 0.161655 5.65 -0.0622071 0.161693 5.8
-0.0623871 0.161722 5.95 -0.0625652 0.16175 6.1 -0.0627415 0.161778 6.25 -0.0629166
0.161805 6.4 -0.0631108 0.161842 6.55 -0.0632871 0.161867 6.7 -0.0634615 0.161892
6.85 -0.0636344 0.161917 7 -0.0638062 0.161942 7.15 -0.0639938 0.161977 7.3
-0.0641661 0.162 7.45 -0.0643369 0.162023 7.6 -0.0645062 0.162045 7.75 -0.0646743
0.162067 7.9 -0.0648556 0.162102 8.05 -0.065024 0.162123 8.2 -0.065191 0.162144
8.35 -0.0653566 0.162164 8.5 -0.0655211 0.162185 8.65 -0.0656965 0.162219 8.8
-0.0658609 0.162239 8.95 -0.0660238 0.162258 9.1 -0.0661853 0.162277 9.25 -0.0663457
0.162296 9.4 -0.0665148 0.162329 9.55 -0.0666754 0.162347 9.7 -0.0668352 0.162365
9.85 -0.0669942 0.162382 10 -0.0671528 0.162399 -1.001 -0.05 0.211626 -0.94763
-0.0500808 0.211469 -0.894259 -0.0501661 0.211279 -0.840889 -0.050256 0.211054 -0.78752 -0.0503905
0.210764 -0.724305 -0.0506345 0.210285 -0.679429 -0.0509124 0.209635 -0.634558 -0.0512478 0.208757
-0.58969 -0.0515871 0.207742 -0.544826 -0.0519314 0.20659 -0.499928 -0.0522821 0.205297 -0.4694
-0.052577 0.204243 -0.438874 -0.0528821 0.203126 -0.408344 -0.0531715 0.202137 -0.377809 -0.0534466
0.20127 -0.329387 -0.0538676 0.200029 -0.28847 -0.0542075 0.199126 -0.247548 -0.0545475 0.198441
-0.206623 -0.0548917 0.198067 -0.165696 -0.0552002 0.197979 -0.124885 -0.0554345 0.198155 -0.0496129
-0.0557424 0.19887 0.0256569 -0.0558817 0.199822 0.100922 -0.0559929 0.201104 0.176185 -0.0561376
0.202464 0.251411 -0.0562752 0.203617 0.251427 -0.0562752 0.203617 0.251442 -0.0562752 0.203617
0.251457 -0.0562752 0.203617 0.251472 -0.0562753 0.203618 0.251488 -0.0562753 0.203618 0.326244
-0.0563909 0.204599 0.401002 -0.0565084 0.205453 0.475762 -0.0566278 0.206179 0.550522 -0.0567756
[...]
POINT_DATA 2595
FIELD attributes 4
age 1 2595 float
0 0.00501121 0.0100224 0.0150336 0.0200448 0.025056 0.0288056 0.0325533 0.036301 0.0400487 0.0437965
0.0475449 0.0512905 0.0550361 0.0587817 0.0625272 0.0700239 0.0775229 0.0850219 0.0925208 0.10002
0.10752 0.115019 0.122519 0.130019 0.137519 0.145019 0.152519 0.160019 0.167518 0.175018
0.182518 0.190018 0.197517 0.205017 0.212517 0.220017 0.227516 0.235016 0.242516 0.250015
0.257515 0.265015 0.272515 0.280014 0.287514 0.295014 0.302514 0.310014 0.317513 0.325013
0.332513 0.340013 0.347512 0.355012 0.362512 0.370012 0.377512 0.385011 0.392511 0.400011
0.407511 0.415011 0.42251 0.43001 0.43751 0.44501 0.452509 0.460009 0.467509 0.475009
0.482509 0.490009 0.497508 0.505008 0.512508 0.520008 0.527507 0.535005 0.542503 0.55
0 0.005026 0.0100532 0.0150746 0.0200878 0.0250928 0.0288319 0.0325651 0.0362915 0.0400111
0.0437245 0.0474307 0.05113 0.0548274 0.0585248 0.0622239 0.0696346 0.0770707 0.0845215 0.091987
0.0994672 0.106808 0.11415 0.121493 0.128837 0.134709 0.135157 0.135605 0.136053 0.136501
0.13695 0.14445 0.15195 0.15945 0.166948 0.174447 0.181945 0.189442 0.196939 0.204436
0.211933 0.219431 0.226928 0.234425 0.241922 0.249419 0.256917 0.264414 0.271912 0.279409
0.286907 0.294406 0.301903 0.309401 0.3169 0.324398 0.331897 0.339395 0.346894 0.354392
0.361891 0.369391 0.376889 0.384388 0.391888 0.399387 0.406887 0.414386 0.421886 0.429385
0.436885 0.444386 0.451885 0.459385 0.466886 0.474386 0.481887 0.489387 0.496888 0.504389
0.511889 0.519391 0.526892 0.534393 0.541894 0.549395 0 0.00502799 0.0100578 0.0150818
0.0200993 0.0251104 0.0288574 0.0325973 0.0363281 0.040054 0.0437701 0.0474748 0.0511738 0.0548716
0.0585685 0.062265 0.0696633 0.0770888 0.0845323 0.0919978 0.0994851 0.106988 0.114493 0.122
0.129508 0.137018 0.144533 0.152042 0.15955 0.167058 0.174565 0.182078 0.189583 0.197089
0.204594 0.212099 0.219611 0.227116 0.234621 0.242126 0.249631 0.257143 0.264649 0.272154
0.27966 0.287165 0.294678 0.302184 0.30969 0.317196 0.324702 0.332215 0.339721 0.347227
0.354734 0.36224 0.369754 0.37726 0.384767 0.392273 0.39978 0.407294 0.414801 0.422308
0.429815 0.437322 0.444837 0.452344 0.459852 0.467359 0.474867 0.482382 0.48989 0.497398
0.504905 0.512413 0.519929 0.527437 0.534945 0.542454 0.549962 0 0.00503009 0.0100662
0.0150995 0.0201269 0.0251494 0.0289151 0.032669 0.0364109 0.0401425 0.0438573 0.0475522 0.0512418
0.0549302 0.0586179 0.0623092 0.0696963 0.0771197 0.0845737 0.0920442 0.0995359 0.107048 0.114561
0.12208 0.129602 0.137125 0.144655 0.152178 0.159701 0.167224 0.174746 0.182274 0.189795
0.197315 0.204836 0.212356 0.219883 0.227403 0.234924 0.242444 0.249964 0.257492 0.265012
0.272533 0.280054 0.287575 0.295103 0.302624 0.310145 0.317666 0.325187 0.332716 0.340237
0.347759 0.35528 0.362802 0.370331 0.377852 0.385374 0.392896 0.400418 0.407948 0.41547
0.422992 0.430515 0.438037 0.445567 0.45309 0.460612 0.468135 0.475658 0.483188 0.490711
0.498234 0.505758 0.513281 0.520812 0.528335 0.535859 0.543382 0.550906 0 0.00268283
0.00536735 0.00805356 0.0107391 0.013918 0.0161731 0.0184279 0.0206819 0.0229351 0.0251891 0.0267194
0.0282477 0.029773 0.0312954 0.0337039 0.0357314 0.0377532 0.0397696 0.0417804 0.0437799 0.0474586
0.0511388 0.0548202 0.0585081 0.0622051 0.0622058 0.0622066 0.0622073 0.0622081 0.0622088 0.0658912
0.0695836 0.0732861 0.0769989 0.0807218 0.0813179 0.0819141 0.0825102 0.0831065 0.0836881 0.0868412
0.0899969 0.0931552 0.0963161 0.099479 0.107 0.114522 0.122048 0.12958 0.137117 0.14466
0.152197 0.159734 0.16727 0.174807 0.18235 0.189885 0.19742 0.204955 0.21249 0.220032
0.227567 0.235102 0.242636 0.250171 0.257713 0.265249 0.272784 0.280319 0.287855 0.295397
0.302933 0.310469 0.318005 0.32554 0.333084 0.34062 0.348156 0.355692 0.363228 0.370772
0.378308 0.385845 0.393382 0.400918 0.408462 0.415999 0.423536 0.431073 0.43861 0.446155
0.453692 0.46123 0.468767 0.476305 0.48385 0.491388 0.498925 0.506463 0.514001 0.521547
0.529085 0.536623 0.544161 0.551699 0 0.00126444 0.00252926 0.00379477 0.00506107 0.0063282
0.0101157 0.0139116 0.017719 0.021533 0.0253295 0.026912 0.0284842 0.0300496 0.0316078 0.0330052
0.0333304 0.0336554 0.03398 0.0343044 0.0346287 0.0364569 0.038278 0.0400901 0.0418971 0.0436946
0.0454951 0.0473003 0.0491174 0.0509395 0.0527658 0.0528998 0.0530338 0.0531678 0.0533018 0.0534417
0.0551377 0.0568366 0.0585383 0.060243 0.0619503 0.0656461 0.0693588 0.0730895 0.0768308 0.0805812
0.0843447 0.0881073 0.0918707 0.0956367 0.0994052 0.106941 0.114479 0.12202 0.129566 0.137116
0.144682 0.152235 0.159788 0.167341 0.174893 0.182454 0.190005 0.197557 0.205108 0.212659
0.220218 0.227769 0.23532 0.242871 0.250422 0.257981 0.265532 0.273084 0.280635 0.288187
0.295746 0.303298 0.310849 0.318401 0.325953 0.333513 0.341065 0.348617 0.356169 0.363722
0.371282 0.378834 0.386386 0.393939 0.401492 0.409052 0.416605 0.424158 0.43171 0.439263
0.446824 0.454377 0.46193 0.469484 0.477037 0.484598 0.492152 0.499705 0.507259 0.514812
0.522374 0.529927 0.537481 0.545035 0.552588 0 0.00126545 0.00253141 0.00379789 0.00506488
0.00633241 0.0082268 0.0101236 0.0120228 0.0139249 0.015829 0.0177465 0.0196688 0.0215921 0.0235185
0.0254573 0.0264284 0.0273969 0.028361 0.0293206 0.03028 0.0307563 0.031231 0.0317036 0.0321741
0.0326896 0.033144 0.0335964 0.0340468 0.0344953 0.0349412 0.0358515 0.0367585 0.0376615 0.0385603
0.0394501 0.0403392 0.0412269 0.0421138 0.0430004 0.0438876 0.0452089 0.0465367 0.0478712 0.0492115
0.0492165 0.0499496 0.050684 0.0514199 0.0521572 0.0528954 0.0547241 0.0565664 0.0584201 0.0602804
0.0621415 0.0640125 0.0658847 0.067759 0.0696359 0.0715168 0.0734052 0.075288 0.077167 0.0790478
0.0809338 0.0840548 0.0871799 0.0903067 0.0934351 0.0960825 0.096851 0.0976197 0.0983885 0.0991574
0.0999265 0.10752 0.115115 0.122714 0.130317 0.137924 0.145556 0.153163 0.160765 0.168367
0.175969 0.18359 0.19119 0.198787 0.206385 0.213983 0.221599 0.229196 0.236792 0.244389
0.251985 0.2596 0.267196 0.274792 0.282388 0.289984 0.297597 0.305193 0.312788 0.320384
0.32798 0.335592 0.343187 0.350782 0.358377 0.365973 0.373583 0.381179 0.388773 0.396368
0.403963 0.411572 0.419167 0.426761 0.434356 0.441951 0.449559 0.457153 0.464747 0.472341
0.479936 0.487543 0.495137 0.50273 0.510324 0.517918 0.525523 0.533117 0.54071 0.548304
0.555897 0 0.00126279 0.00252625 0.00379075 0.00505643 0.00632329 0.00823332 0.0101454 0.0120611
0.0139803 0.0159047 0.017822 0.0197523 0.0216953 0.0236512 0.0256294 0.0266293 0.0276301 0.0286312
0.0296314 0.0306436 0.0308908 0.031138 0.0313849 0.0316298 0.0318196 0.0325703 0.0333084 0.0340335
0.0347448 0.0354479 0.0358947 0.0363399 0.0367835 0.0372257 0.0376619 0.0380992 0.0385337 0.0389658
0.0393971 0.0398262 0.040258 0.0406899 0.041122 0.0415546 0.0419898 0.0424251 0.0428599 0.0432951
0.0437312 0.0441695 0.0450462 0.0459321 0.0468287 0.0477361 0.0486606 0.0493757 0.0500901 0.0508067
0.0515263 0.052405 0.0525929 0.0527809 0.052969 0.0531573 0.0533458 0.0542992 0.0552508 0.0562046
0.0571622 0.0581217 0.0590901 0.0600578 0.0610265 0.0619982 0.0629715 0.0649392 0.0669019 0.0688595
0.0708215 0.0727665 0.0746978 0.0766438 0.0786046 0.0805705 0.0825413 0.0865035 0.0904577 0.094386
0.0982971 0.102212 0.110042 0.117839 0.125565 0.13323 0.1409 0.148598 0.156275 0.163948
0.171615 0.179281 0.186963 0.194628 0.20229 0.209951 0.217611 0.225286 0.232945 0.240603
0.24826 0.255917 0.263587 0.271244 0.2789 0.286554 0.294209 0.301875 0.30953 0.317183
0.324836 0.332488 0.340151 0.347803 0.355454 0.363105 0.370755 0.378415 0.386065 0.393714
0.401363 0.409011 0.416668 0.424316 0.431963 0.439609 0.447256 0.45491 0.462556 0.470201
0.477846 0.48549 0.493141 0.500786 0.508429 0.516071 0.523714 0.531362 0.539004 0.546646
0.554287 0.561928 0 0.00126441 0.00252948 0.00379519 0.00506155 0.00632916 0.00824621 0.0101657
0.0120884 0.0140175 0.0159587 0.0169288 0.0179017 0.0188779 0.0198572 0.0208397 0.0218273 0.0228231
0.0238278 0.0248415 0.0258656 0.0263832 0.0269026 0.0274257 0.0279523 0.0284854 0.0287757 0.0290675
0.0293615 0.0296583 0.0297562 0.0300562 0.0303576 0.0306599 0.030962 0.0312723 0.0313684 0.0314644
0.0315606 0.0316571 0.0317276 0.0317633 0.031799 0.0318347 0.0318704 0.0319044 0.0320677 0.0322309
0.032394 0.0325569 0.0327211 0.0329 0.0330785 0.0332565 0.0334317 0.0335608 0.0336663 0.0337712
0.0338755 0.0339789 0.0340838 0.0341938 0.0343024 0.0344095 0.0345156 0.0346023 0.0346574 0.0347121
0.0347665 0.0348206 0.0348735 0.0349709 0.035068 0.0351645 0.0352606 0.0353546 0.0354772 0.0355984
0.0357181 0.0358367 0.0360309 0.0361306 0.0362299 0.0363289 0.0364277 0.0365169 0.0366027 0.0366886
0.0367745 0.0368603 0.0370163 0.0371396 0.0372627 0.0373856 0.0375083 0.0376293 0.0378484 0.0380658
0.0382832 0.0385013 0.0387158 0.0389341 0.0391518 0.0393697 0.0395882 0.0398064 0.0400278 0.0402472
0.040467 0.040687 0.0409077 0.0411283 0.0413484 0.0415689 0.0417901 0.0420138 0.0422388 0.0424619
0.0426851 0.0429089 0.0431338 0.0434603 0.0437884 0.0441217 0.0444606 0.0446245 0.0447931 0.044962
0.0451314 0.0453011 0.0454722 0.0459607 0.0464411 0.0469218 0.0473978 0.0478956 0.0484142 0.0489223
0.0494311 0.0499448 0.0504658 0.0505258 0.0505859 0.0506461 0.0507064 0.0507657 0.0517846 0.0528447
0.0539501 0.0550182 0.056099 0.0573034 0.0584862 0.0596705 0.0608608 0.0620507 0.0624299 0.0628083
0.0631866 0.0635651 0.0639887 0.0648174 0.0656376 0.0664551 0.0672749 0.0680933 0.068212 0.0683304
0.0684485 0.0685663 0.0686828 0.0697563 0.0708227 0.0718872 0.0729498 0.0740071 0.07516 0.0763341
0.0775118 0.0786909 0.0798726 0.0812535 0.0826354 0.0840236 0.0854173 0.0871444 0.087996 0.0888435
0.0896869 0.0905263 0.0913611 0.0958735 0.100361 0.104774 0.109096 0.113286 0.121465 0.12958
0.137623 0.145594 0.153481 0.161241 0.169002 0.176761 0.184516 0.192269 0.200018 0.207767
0.215514 0.223259 0.231002 0.236997 0.242992 0.248987 0.25498 0.261054 0.262782 0.264509
0.266237 0.267965 0.269693 0.277427 0.285162 0.292898 0.300633 0.308369 0.316095 0.32383
0.331566 0.339301 0.347036 0.354755 0.36249 0.370225 0.37796 0.385695 0.393407 0.401142
0.408876 0.41661 0.424345 0.432051 0.439784 0.447518 0.455251 0.462985 0.470685 0.478418
0.48615 0.493882 0.501615 0.50931 0.517042 0.524773 0.532504 0.540235 0.547924 0.555653
0.563382 0.571111 0.578841 0 0.00125411 0.00250916 0.00376553 0.00502334 0.00628272 0.00821402
0.010148 0.0120848 0.0140286 0.0159868 0.0169595 0.0179361 0.0189167 0.0199014 0.0208902 0.0218846
0.0228899 0.0239068 0.0249355 0.0259771 0.0265057 0.0270376 0.0275761 0.0281215 0.0286757 0.0292412
0.0298145 0.0304007 0.0310009 0.0316276 0.0319465 0.0322652 0.0325847 0.0329052 0.0332402 0.0333117
0.0333832 0.0334547 0.0335262 0.0335845 0.0336602 0.0337345 0.033808 0.0338808 0.0339423 0.034114
0.0342824 0.0344475 0.0346091 0.0347762 0.0349185 0.0350582 0.0351952 0.035329 0.0354481 0.0355686
0.0356886 0.035808 0.0359258 0.0360378 0.0361549 0.036269 0.0363801 0.0364906 0.0366364 0.0367437
0.0368509 0.0369578 0.0370645 0.0371624 0.0373596 0.037557 0.0377576 0.0379613 0.0383796 0.0386144
0.0388497 0.0390827 0.0393137 0.0395397 0.0400034 0.0404607 0.0409143 0.0413645 0.0418096 0.042267
0.0427088 0.0431539 0.0436022 0.0440535 0.0445268 0.0449939 0.0454726 0.0459559 0.0464471 0.0473147
0.0482023 0.0491039 0.0499924 0.0517821 0.0529047 0.0540294 0.0551777 0.056346 0.057547 0.0588046
0.0600352 0.0612491 0.0624721 0.063701 0.0645883 0.065463 0.0663369 0.0672054 0.0683595 0.0686665
0.0689737 0.0692809 0.0695888 0.069897 0.0706363 0.0713768 0.0721173 0.0728588 0.0737609 0.0742297
0.0746983 0.0751667 0.0756338 0.0760989 0.0773383 0.0785819 0.0798331 0.0810852 0.0823368 0.0848225
0.0873119 0.0897719 0.0921896 0.0945821 0.0994118 0.104194 0.108838 0.113346 0.117701 0.121351
0.124989 0.128612 0.132221 0.13674 0.141225 0.145657 0.150036 0.154364 0.158641 0.166401
0.17417 0.181938 0.189704 0.19747 0.205214 0.212978 0.220742 0.228505 0.236267 0.244
0.251761 0.259522 0.267283 0.275044 0.28277 0.290529 0.298289 0.306049 0.313809 0.321527
0.329286 0.337045 0.344804 0.352563 0.360274 0.368032 0.375789 0.383547 0.391305 0.399011
0.406767 0.414523 0.42228 0.430037 0.437736 0.445491 0.453246 0.461001 0.468756 0.47645
0.484203 0.491956 0.49971 0.507463 0.515152 0.522904 0.530655 0.538407 0.546158 0.553841
0.561589 0.569338 0.577086 0.584836 0 0.00125903 0.00251874 0.00377913 0.00504093 0.00630439
0.00823307 0.0101647 0.0120992 0.0140412 0.0159973 0.0169702 0.0179471 0.0189282 0.0199135 0.020903
0.0218975 0.0229026 0.0239193 0.0249478 0.0259893 0.0265183 0.0270502 0.0275878 0.0281321 0.0286858
0.0292487 0.0298193 0.0303995 0.0309921 0.0316143 0.0319304 0.0322472 0.0325644 0.0328815 0.0332112
0.0334487 0.0336849 0.0339191 0.0341473 0.034244 0.0343479 0.0344508 0.0345525 0.0346531 0.0347564
0.0349575 0.0351516 0.0353393 0.035521 0.0356754 0.0357526 0.0358295 0.0359056 0.035981 0.0360635
0.0360639 0.0360642 0.0360646 0.036065 0.0360653 0.0362102 0.0363536 0.0364957 0.0366364 0.0368427
0.0369189 0.0369949 0.0370709 0.0371467 0.0372186 0.0376763 0.0381392 0.0386156 0.0391 0.0395144
0.0399763 0.0404273 0.040877 0.041329 0.0417893 0.042266 0.0427326 0.0431959 0.0436616 0.0441368
0.0446301 0.0451137 0.0455915 0.0460747 0.0465718 0.0476066 0.0486636 0.0497324 0.0508206 0.0515409
0.051622 0.0517029 0.0517837 0.0518645 0.0519453 0.0530754 0.0542298 0.0554119 0.0566172 0.0578431
0.059119 0.0603707 0.061602 0.0628492 0.0640902 0.0647144 0.0653274 0.0659377 0.0665465 0.0671591
0.0677856 0.0684024 0.0690097 0.0696192 0.0702341 0.0714855 0.0727464 0.0740044 0.0752575 0.0765003
0.0772037 0.077901 0.0785992 0.079299 0.0800746 0.0805005 0.0809265 0.0813529 0.0817802 0.0821989
0.082313 0.0824271 0.082541 0.0826549 0.0827686 0.0852794 0.0877751 0.0902561 0.0926782 0.0950712
0.0998353 0.10455 0.109154 0.113648 0.117998 0.124631 0.131182 0.137623 0.143959 0.159297
0.161651 0.164004 0.166358 0.168711 0.171093 0.176485 0.181875 0.187265 0.192655 0.198043
0.205783 0.213528 0.221272 0.229017 0.23676 0.244489 0.252231 0.259974 0.267716 0.275459
0.283179 0.290921 0.298663 0.306404 0.314146 0.321859 0.3296 0.337342 0.345083 0.352824
0.360531 0.368271 0.376011 0.383752 0.391492 0.399193 0.406932 0.414671 0.422411 0.43015
0.437845 0.445583 0.453322 0.46106 0.468798 0.476488 0.484224 0.491961 0.499698 0.507435
0.51512 0.522855 0.530591 0.538326 0.546061 0.553741 0.561473 0.569205 0.576938 0.584672
0 0.00127992 0.00256048 0.00384229 0.00512558 0.00641037 0.00831679 0.0102257 0.0121374 0.0140556
0.0159859 0.0169579 0.017933 0.0189115 0.0198933 0.0208788 0.0218729 0.0228761 0.0238891 0.0249121
0.0259473 0.0263894 0.026833 0.0272801 0.0277306 0.0278543 0.0280036 0.0281532 0.0283029 0.0284526
0.0286026 0.029146 0.0296937 0.0302485 0.0308122 0.0313968 0.0314712 0.0315457 0.0316201 0.0316945
0.0317593 0.031977 0.0321947 0.0324123 0.0326298 0.0328507 0.0329306 0.0330104 0.0330902 0.0331697
0.0332386 0.0334495 0.0336596 0.0338686 0.0340743 0.0342864 0.0343485 0.0344101 0.0344714 0.0345322
0.034585 0.0345907 0.0345964 0.0346021 0.0346077 0.0346134 0.0348286 0.0350392 0.0352454 0.0354442
0.0356344 0.0356563 0.0356781 0.0356999 0.0357216 0.0357438 0.0358453 0.0359458 0.0360454 0.0361462
0.0362902 0.0363841 0.0364773 0.03657 0.0366617 0.036751 0.036855 0.0369582 0.0370609 0.0371638
0.0373123 0.0374112 0.0375099 0.0376087 0.0377082 0.0378054 0.0380172 0.0382272 0.0384366 0.0386453
0.0388574 0.0390774 0.0392929 0.0395041 0.0397153 0.0399293 0.0401454 0.0403599 0.0405734 0.0407875
0.0410042 0.0412254 0.0414431 0.0416594 0.041876 0.0420937 0.0423126 0.0425299 0.0427471 0.0429647
0.0431836 0.0436289 0.0440745 0.0445232 0.0449754 0.0454358 0.0459148 0.0463818 0.0468406 0.0473025
0.0477779 0.0482607 0.0487417 0.0492227 0.0497076 0.0502004 0.051217 0.0522394 0.0532741 0.0543627
0.0554679 0.0558174 0.0561672 0.0565181 0.0568704 0.0572415 0.0580478 0.0588535 0.0596588 0.0604677
0.0612848 0.0624843 0.0636602 0.0648431 0.0660407 0.0672324 0.0684585 0.0696605 0.0708407 0.0720143
0.0731801 0.0736178 0.0740548 0.0744922 0.07493 0.0753595 0.0756593 0.0759593 0.0762595 0.0765598
0.0768675 0.0773026 0.077738 0.0781737 0.0786099 0.0790463 0.081391 0.0837375 0.0860831 0.0883986
0.0906877 0.0951985 0.0997619 0.10423 0.108556 0.112775 0.121087 0.129369 0.137588 0.145634
0.153511 0.161253 0.168994 0.176732 0.184467 0.192198 0.199926 0.207654 0.21538 0.223104
0.230826 0.236929 0.243032 0.249134 0.255235 0.261336 0.262952 0.264567 0.266183 0.267799
0.269415 0.277129 0.284844 0.29256 0.300275 0.307991 0.315697 0.323413 0.331128 0.338843
0.346558 0.354259 0.361974 0.369689 0.377404 0.385119 0.392814 0.400528 0.408242 0.415957
0.423671 0.431361 0.439074 0.446788 0.454501 0.462215 0.4699 0.477612 0.485325 0.493038
0.500751 0.50843 0.516142 0.523854 0.531565 0.539277 0.546951 0.554661 0.56237 0.570081
0.577791 0 0.00127753 0.00255576 0.00383512 0.00511575 0.00639767 0.00829924 0.0102027 0.0121091
0.0140203 0.0159396 0.0169037 0.0178698 0.0188378 0.019808 0.0207804 0.0217542 0.0227329 0.023717
0.0247056 0.025698 0.0266887 0.0276858 0.0286911 0.0296916 0.0307001 0.0307753 0.0308506 0.0309258
0.0310008 0.0310702 0.0319924 0.0328951 0.0337773 0.0346384 0.0354968 0.0359447 0.0363903 0.0368339
0.0372764 0.0377134 0.0381519 0.038588 0.0390231 0.0394577 0.0398863 0.0403194 0.0407525 0.041186
0.0416198 0.0420542 0.0424904 0.0429254 0.0433613 0.0437982 0.044237 0.045115 0.0460015 0.0468947
0.0477954 0.0487211 0.0496682 0.0506077 0.0515407 0.0524806 0.0534299 0.0541514 0.0548781 0.0556071
0.0563377 0.0574532 0.0576194 0.0577858 0.0579522 0.0581188 0.0582854 0.0592691 0.0602521 0.0612355
0.0622187 0.0632009 0.0652008 0.0671875 0.0691637 0.0711494 0.0731325 0.0750907 0.077075 0.0790742
0.0810773 0.0830824 0.0870945 0.0911231 0.0951201 0.0990723 0.103019 0.105838 0.108663 0.111495
0.114321 0.117641 0.122646 0.127623 0.132573 0.137495 0.14239 0.1501 0.157812 0.165523
0.17323 0.180935 0.188629 0.19633 0.204029 0.211727 0.219423 0.22711 0.234803 0.242495
0.250186 0.257876 0.265559 0.273246 0.280933 0.288619 0.296304 0.303983 0.311666 0.319347
0.327029 0.334709 0.342385 0.350063 0.357741 0.365418 0.373094 0.380766 0.388441 0.396114
0.403787 0.411459 0.419129 0.426799 0.434469 0.442138 0.449807 0.457473 0.46514 0.472807
0.480473 0.488138 0.495801 0.503465 0.511128 0.518791 0.526452 0.534112 0.541773 0.549432
0.557092 0.564751 0 0.00127409 0.0025488 0.00382396 0.00510034 0.00637795 0.00827385 0.0101719
0.0120722 0.0139755 0.015883 0.0177923 0.0197068 0.0216262 0.0235503 0.0254823 0.0264532 0.027421
0.0283839 0.0293419 0.0299606 0.0309787 0.0319892 0.0329892 0.033979 0.0349571 0.035866 0.0367716
0.037673 0.0385715 0.0394611 0.0403517 0.0412407 0.0421287 0.0430157 0.043902 0.0456791 0.0474735
0.0492825 0.0511012 0.0529363 0.0537931 0.0546512 0.0555114 0.0563736 0.0577054 0.0586038 0.0595041
0.0604062 0.0613101 0.0622155 0.0640911 0.0659696 0.0678508 0.0697346 0.0716204 0.0735159 0.0754035
0.0772921 0.0791821 0.0810731 0.084869 0.0886639 0.0924634 0.0962673 0.100085 0.107784 0.115486
0.123143 0.130762 0.138397 0.146046 0.153692 0.161338 0.168981 0.176622 0.184269 0.191911
0.199553 0.207192 0.214831 0.222472 0.23011 0.237748 0.245384 0.253019 0.260658 0.268293
0.275928 0.283562 0.291195 0.298831 0.306464 0.314096 0.321728 0.329359 0.336992 0.344623
0.352254 0.359883 0.367512 0.375143 0.382772 0.3904 0.398028 0.405654 0.413283 0.42091
0.428536 0.436162 0.443787 0.451413 0.459038 0.466663 0.474286 0.481909 0.489534 0.497157
0.504779 0.512401 0.520022 0.527644 0.535265 0.542885 0.550505 0.558125 0 0.00127141
0.00254321 0.00381553 0.00508845 0.00636198 0.0101414 0.0139323 0.0177224 0.0215091 0.0252996 0.0257905
0.0262802 0.026769 0.0272569 0.0276864 0.029076 0.0304602 0.0318394 0.0332133 0.0345848 0.0364259
0.0382575 0.0400722 0.0418829 0.0436885 0.0454996 0.0473082 0.0491182 0.0509369 0.052767 0.0546032
0.0564409 0.0582814 0.0601248 0.0619707 0.0656729 0.069389 0.073121 0.0768678 0.0806185 0.0843888
0.0881573 0.0919261 0.0956968 0.09947 0.106999 0.114528 0.122061 0.129609 0.137172 0.144751