# vtk DataFile Version 2.0
tracks
ASCII
DATASET POLYDATA
POINTS 2605 float
-1.001 -0.05 0.0011 -0.900789 -0.0500217 0.00109731 -0.800577 -0.0500434 0.00109464 -0.700366 -0.0500651
0.00109196 -0.600155 -0.0500866 0.0010893 -0.499943 -0.0501082 0.00108664 -0.424945 -0.0501123 0.00107895
-0.349947 -0.0501536 0.00106886 -0.274949 -0.0501945 0.00105887 -0.19995 -0.050235 0.00104897 -0.124952
-0.0502752 0.00103916 -0.0499538 -0.0502849 0.00103941 0.0250446 -0.0502944 0.00104817 0.100043 -0.050304
0.00105702 0.175041 -0.0503137 0.00106593 0.25004 -0.0503235 0.00107492 0.400037 -0.0503179 0.0010911
0.550035 -0.0503167 0.0011054 0.700032 -0.0503155 0.00111989 0.85003 -0.0503143 0.00113456 1.00003
-0.0503131 0.00114943 1.15003 -0.0503242 0.00115664 1.30002 -0.0503304 0.00116116 1.45002 -0.0503366
0.0011657 1.60002 -0.0503428 0.00117025 1.75002 -0.050349 0.00117482 1.90002 -0.0503579 0.00117771
2.05002 -0.0503648 0.00117969 2.20001 -0.0503717 0.00118167 2.35001 -0.0503787 0.00118365 2.50001
-0.0503856 0.00118564 2.65001 -0.0503939 0.00118671 2.80001 -0.0504024 0.00118744 2.95001 -0.050411
0.00118818 3.10001 -0.0504195 0.00118891 3.25001 -0.0504281 0.00118965 3.40001 -0.0504362 0.00118996
3.55001 -0.0504455 0.00119058 3.70001 -0.0504548 0.00119121 3.85001 -0.050464 0.00119184 4.00001
-0.0504733 0.00119246 4.15 -0.0504813 0.00119257 4.3 -0.0504914 0.00119329 4.45 -0.0505014
0.00119401 4.6 -0.0505115 0.00119474 4.75 -0.0505215 0.00119546 4.9 -0.0505295 0.00119549
5.05 -0.05054 0.00119637 5.2 -0.0505505 0.00119725 5.35 -0.050561 0.00119813 5.5
-0.0505715 0.00119901 5.65 -0.0505793 0.001199 5.8 -0.0505901 0.00120004 5.95 -0.0506009
0.00120108 6.1 -0.0506118 0.00120211 6.25 -0.0506226 0.00120315 6.4 -0.0506303 0.00120311
6.55 -0.0506413 0.00120428 6.7 -0.0506523 0.00120545 6.85 -0.0506634 0.00120662 7
-0.0506744 0.00120779 7.15 -0.0506821 0.00120773 7.3 -0.0506932 0.00120901 7.45 -0.0507043
0.00121028 7.6 -0.0507155 0.00121156 7.75 -0.0507267 0.00121284 7.9 -0.0507343 0.00121276
8.05 -0.0507455 0.00121412 8.2 -0.0507568 0.00121549 8.35 -0.050768 0.00121685 8.5
-0.0507793 0.00121822 8.65 -0.0507868 0.00121814 8.8 -0.0507981 0.00121957 8.95 -0.0508094
0.00122102 9.1 -0.0508208 0.00122246 9.25 -0.0508321 0.0012239 9.4 -0.0508396 0.0012238
9.55 -0.0508985 0.00122599 9.7 -0.0510103 0.00122896 9.85 -0.0511752 0.0012327 10
-0.051393 0.00123722 -1.001 -0.05 0.0537316 -0.900807 -0.0501086 0.0535765 -0.800614 -0.0502178
0.0533942 -0.700421 -0.0503511 0.0531783 -0.600229 -0.0505161 0.0529267 -0.500035 -0.0507127 0.0526397
-0.425004 -0.050965 0.0524179 -0.349973 -0.0513071 0.0521296 -0.274943 -0.0516973 0.0518623 -0.199913
-0.0521221 0.0516373 -0.124879 -0.0525319 0.0514947 -0.0498864 -0.0528062 0.0515324 0.0251065 -0.0530354
0.0516995 0.100099 -0.0532604 0.0519353 0.175092 -0.053495 0.0522192 0.250087 -0.0537246 0.0525381
0.400077 -0.0541285 0.0531758 0.550067 -0.0545297 0.0536913 0.700057 -0.0548884 0.0541582 0.850047
-0.0552046 0.0545761 1.00003 -0.0554868 0.0549443 1.14725 -0.0558695 0.0552239 1.29447 -0.05622
0.0554849 1.44169 -0.0565676 0.0557122 1.58891 -0.0569124 0.0559057 1.70663 -0.057186 0.0560333
1.71531 -0.0572069 0.0560414 1.72398 -0.0572279 0.0560495 1.73266 -0.057249 0.0560575 1.74134
-0.0572702 0.0560654 1.75002 -0.0572914 0.0560732 1.90002 -0.0576609 0.0562076 2.05002 -0.0580262
0.0563247 2.20001 -0.0583877 0.0564242 2.35001 -0.0587454 0.056506 2.50001 -0.0590992 0.0565702
2.65001 -0.059458 0.0566233 2.80001 -0.0598167 0.0566697 2.95001 -0.0601747 0.0567085 3.10001
-0.0605318 0.0567397 3.25001 -0.060888 0.0567632 3.40001 -0.0612448 0.0567816 3.55001 -0.0616032
0.0567994 3.70001 -0.0619601 0.0568152 3.85001 -0.0623154 0.0568291 4.00001 -0.0626691 0.0568409
4.15 -0.0630201 0.0568504 4.3 -0.0633752 0.0568609 4.45 -0.0637287 0.0568707 4.6
-0.0640806 0.0568797 4.75 -0.0644309 0.056888 4.9 -0.064776 0.0568941 5.05 -0.0651266
0.056902 5.2 -0.0654757 0.0569096 5.35 -0.0658233 0.0569169 5.5 -0.0661695 0.0569237
5.65 -0.0665085 0.056928 5.8 -0.0668541 0.0569348 5.95 -0.0671984 0.0569413 6.1
-0.0675413 0.0569476 6.25 -0.0678829 0.0569537 6.4 -0.0682163 0.0569568 6.55 -0.0685569
0.0569628 6.7 -0.0688962 0.0569687 6.85 -0.0692342 0.0569744 7 -0.0695709 0.0569799
7.15 -0.0698987 0.0569822 7.3 -0.0702343 0.0569877 7.45 -0.0705685 0.056993 7.6
-0.0709015 0.0569983 7.75 -0.0712333 0.0570034 7.9 -0.0715556 0.057005 8.05 -0.071886
0.0570102 8.2 -0.0722151 0.0570153 8.35 -0.072543 0.0570203 8.5 -0.0728697 0.0570253
8.65 -0.0731867 0.0570267 8.8 -0.0735119 0.0570318 8.95 -0.0738358 0.0570366 9.1
-0.0741585 0.0570414 9.25 -0.0744799 0.057046 9.4 -0.0747913 0.0570468 9.55 -0.0751117
0.0570515 9.7 -0.0754314 0.0570561 9.85 -0.0757506 0.0570606 10 -0.0760693 0.0570651
-1.001 -0.05 0.106363 -0.900818 -0.0500806 0.106138 -0.800636 -0.0501593 0.105865 -0.700455
-0.0502653 0.105546 -0.600274 -0.0504424 0.105005 -0.50009 -0.0506902 0.104244 -0.424996 -0.0509817
0.10366 -0.349901 -0.0513351 0.103056 -0.274807 -0.0516937 0.102521 -0.199711 -0.0519981 0.102094
-0.124607 -0.0523478 0.101993 -0.0496044 -0.0526044 0.102108 0.0253976 -0.0528068 0.10234 0.100399
-0.0529964 0.102653 0.175401 -0.0532067 0.103052 0.250411 -0.0534373 0.103536 0.400346 -0.0538627
0.10454 0.550283 -0.0542863 0.105413 0.70022 -0.0546698 0.106199 0.850157 -0.0550216 0.106819
1.00009 -0.0553413 0.107271 1.15007 -0.0557968 0.107538 1.30006 -0.0561057 0.107838 1.45005
-0.0563623 0.108116 1.60003 -0.0566127 0.108362 1.75002 -0.056857 0.108575 1.90002 -0.0571752
0.108721 2.05002 -0.05743 0.108879 2.20001 -0.0576788 0.10902 2.35001 -0.0579251 0.109144
2.50001 -0.0581689 0.109251 2.65001 -0.0584689 0.109322 2.80001 -0.0587273 0.109391 2.95001
-0.0589844 0.109453 3.10001 -0.0592407 0.109508 3.25001 -0.0594963 0.109555 3.40001 -0.0597944
0.109591 3.55001 -0.0600565 0.109626 3.70001 -0.0603165 0.109659 3.85001 -0.0605749 0.109691
4 -0.0608316 0.10972 4.15 -0.0611231 0.109748 4.3 -0.0613847 0.109771 4.45
-0.0616443 0.109794 4.6 -0.0619022 0.109816 4.75 -0.0621585 0.109837 4.9 -0.062443
0.109862 5.05 -0.0627021 0.109879 5.2 -0.0629594 0.109895 5.35 -0.0632151 0.109912
5.5 -0.0634694 0.109928 5.65 -0.0637469 0.109951 5.8 -0.0640029 0.109964 5.95
-0.0642573 0.109976 6.1 -0.0645103 0.109989 6.25 -0.064762 0.110001 6.4 -0.065033
0.110023 6.55 -0.0652856 0.110032 6.7 -0.0655368 0.110042 6.85 -0.0657867 0.110051
7 -0.0660353 0.11006 7.15 -0.0663 0.110081 7.3 -0.0665492 0.110089 7.45
-0.0667969 0.110096 7.6 -0.0670434 0.110103 7.75 -0.0672886 0.110109 7.9 -0.0675472
0.11013 8.05 -0.0677927 0.110135 8.2 -0.0680368 0.11014 8.35 -0.0682797 0.110146
8.5 -0.0685214 0.110151 8.65 -0.0687743 0.11017 8.8 -0.0690158 0.110175 8.95
-0.069256 0.110179 9.1 -0.069495 0.110183 9.25 -0.0697327 0.110186 9.4 -0.0699794
0.110205 9.55 -0.0702173 0.110208 9.7 -0.0704544 0.11021 9.85 -0.0706911 0.110212
10 -0.0709272 0.110215 -1.001 -0.05 0.158995 -0.900796 -0.050091 0.15877 -0.800593
-0.0501985 0.158424 -0.700392 -0.0503641 0.157688 -0.600196 -0.0506007 0.156476 -0.499992 -0.0509002
0.154638 -0.42472 -0.0515121 0.153037 -0.349437 -0.0519853 0.152118 -0.274149 -0.0523888 0.151559
-0.19886 -0.0527913 0.151268 -0.1237 -0.0531169 0.151324 -0.0487809 -0.053249 0.151489 0.0261367
-0.053337 0.151973 0.101052 -0.0534864 0.152683 0.175967 -0.053663 0.153486 0.250944 -0.0538265
0.154319 0.400783 -0.0540554 0.155746 0.550624 -0.0545823 0.156928 0.700468 -0.0550732 0.157685
0.850313 -0.0554879 0.158287 1.00014 -0.0558704 0.158722 1.15012 -0.0563895 0.158972 1.30009
-0.0567616 0.159254 1.45007 -0.0570379 0.159526 1.60005 -0.0572351 0.159783 1.75002 -0.0574264
0.160008 1.90002 -0.0576925 0.160165 2.05002 -0.0578948 0.160333 2.20002 -0.0580844 0.160488
2.35001 -0.058265 0.160627 2.50001 -0.0584432 0.160749 2.65001 -0.0586781 0.160835 2.80001
-0.0588712 0.160919 2.95001 -0.0590618 0.160997 3.10001 -0.0592508 0.161067 3.25001 -0.0594391
0.16113 3.40001 -0.05967 0.161183 3.55001 -0.059865 0.161234 3.70001 -0.0600571 0.161284
3.85001 -0.0602467 0.161332 4 -0.0604348 0.161378 4.15 -0.0606575 0.161423 4.3
-0.0608505 0.161464 4.45 -0.0610407 0.161503 4.6 -0.0612286 0.161543 4.75 -0.061415
0.161581 4.9 -0.0616292 0.161624 5.05 -0.0618184 0.161659 5.2 -0.0620052 0.161693
5.35 -0.06219 0.161727 5.5 -0.0623732 0.161761 5.65 -0.0625794 0.161802 5.8
-0.0627645 0.161833 5.95 -0.0629474 0.161863 6.1 -0.0631286 0.161893 6.25 -0.0633085
0.161923 6.4 -0.0635072 0.161963 6.55 -0.0636881 0.161991 6.7 -0.063867 0.162018
6.85 -0.0640444 0.162046 7 -0.0642204 0.162073 7.15 -0.0644122 0.162111 7.3
-0.0645888 0.162137 7.45 -0.0647637 0.162162 7.6 -0.064937 0.162186 7.75 -0.0651092
0.162211 7.9 -0.0652942 0.162249 8.05 -0.0654666 0.162272 8.2 -0.0656374 0.162295
8.35 -0.0658067 0.162319 8.5 -0.0659749 0.162342 8.65 -0.0661537 0.162379 8.8
-0.0663217 0.162401 8.95 -0.0664881 0.162423 9.1 -0.066653 0.162444 9.25 -0.0668167
0.162466 9.4 -0.0669889 0.162502 9.55 -0.0671527 0.162522 9.7 -0.0673155 0.162542
9.85 -0.0674776 0.162562 10 -0.0676392 0.162581 -1.001 -0.05 0.211626 -0.947627
-0.050082 0.211469 -0.894253 -0.0501687 0.211278 -0.84088 -0.0502602 0.211054 -0.787507 -0.0503963
0.210763 -0.724282 -0.0506426 0.210285 -0.679411 -0.0509223 0.209634 -0.634545 -0.0512595 0.208756
-0.589681 -0.0516009 0.207741 -0.544821 -0.0519475 0.206588 -0.499928 -0.0523007 0.205296 -0.469407
-0.0525973 0.204242 -0.438887 -0.0529041 0.203125 -0.408363 -0.0531954 0.202136 -0.377835 -0.0534725
0.201269 -0.329463 -0.0538966 0.200029 -0.28853 -0.0542401 0.199125 -0.247594 -0.0545841 0.198438
-0.206653 -0.0549327 0.198063 -0.165711 -0.0552458 0.197976 -0.124885 -0.0554846 0.198152 -0.0496127
-0.0558008 0.19887 0.0256571 -0.0559487 0.199826 0.100922 -0.0560686 0.201114 0.176186 -0.0562218
0.202481 0.249844 -0.0563646 0.203615 0.250172 -0.0563651 0.20362 0.250501 -0.0563656 0.203624
0.25083 -0.0563662 0.203628 0.251159 -0.0563667 0.203633 0.251487 -0.0563673 0.203637 0.326244
-0.056491 0.204622 0.401002 -0.0566163 0.20548 0.475762 -0.0567434 0.20621 0.550522 -0.0568988
[...]
POINT_DATA 2605
FIELD attributes 4
age 1 2605 float
0 0.00501121 0.0100224 0.0150336 0.0200448 0.025056 0.0288056 0.0325533 0.036301 0.0400487 0.0437965
0.0475449 0.0512905 0.0550361 0.0587816 0.0625272 0.0700239 0.0775229 0.0850218 0.0925208 0.10002
0.107519 0.115019 0.122519 0.130019 0.137519 0.145019 0.152519 0.160019 0.167518 0.175018
0.182518 0.190018 0.197517 0.205017 0.212517 0.220017 0.227516 0.235016 0.242516 0.250015
0.257515 0.265015 0.272515 0.280014 0.287514 0.295014 0.302514 0.310013 0.317513 0.325013
0.332513 0.340013 0.347512 0.355012 0.362512 0.370012 0.377511 0.385011 0.392511 0.400011
0.407511 0.41501 0.42251 0.43001 0.43751 0.44501 0.452509 0.460009 0.467509 0.475009
0.482509 0.490008 0.497508 0.505008 0.512508 0.520008 0.527507 0.535005 0.542503 0.549999
0 0.00502602 0.0100533 0.0150746 0.0200878 0.0250929 0.0288319 0.032565 0.0362914 0.0400109
0.0437242 0.0474304 0.0511295 0.0548269 0.0585241 0.0622231 0.0696337 0.0770697 0.0845204 0.0919858
0.0994659 0.106821 0.114177 0.121534 0.128893 0.134778 0.135212 0.135646 0.13608 0.136514
0.136948 0.144448 0.151948 0.159447 0.166946 0.174444 0.181942 0.18944 0.196937 0.204434
0.211931 0.219428 0.226925 0.234422 0.241919 0.249416 0.256914 0.264411 0.271908 0.279406
0.286904 0.294402 0.3019 0.309398 0.316896 0.324394 0.331893 0.339391 0.346889 0.354388
0.361887 0.369386 0.376885 0.384384 0.391883 0.399382 0.406882 0.414381 0.42188 0.42938
0.436879 0.44438 0.45188 0.45938 0.46688 0.47438 0.481881 0.489381 0.496881 0.504382
0.511883 0.519384 0.526885 0.534386 0.541887 0.549388 0 0.00502801 0.0100578 0.0150819
0.0200993 0.0251104 0.0288574 0.0325973 0.036328 0.0400538 0.0437699 0.0474745 0.0511734 0.0548711
0.0585679 0.0622643 0.0696625 0.0770878 0.0845313 0.0919968 0.099484 0.106987 0.114491 0.121998
0.129507 0.137016 0.144531 0.15204 0.159548 0.167055 0.174562 0.182075 0.18958 0.197085
0.20459 0.212095 0.219607 0.227112 0.234617 0.242121 0.249626 0.257138 0.264644 0.272149
0.279654 0.28716 0.294672 0.302178 0.309684 0.317189 0.324695 0.332208 0.339714 0.34722
0.354726 0.362232 0.369746 0.377252 0.384759 0.392265 0.399771 0.407286 0.414792 0.422299
0.429806 0.437313 0.444827 0.452334 0.459841 0.467349 0.474856 0.482371 0.489878 0.497386
0.504893 0.512401 0.519917 0.527425 0.534933 0.54244 0.549948 0 0.00503011 0.0100663
0.0150995 0.0201269 0.0251495 0.0289151 0.0326689 0.0364108 0.0401422 0.0438569 0.0475518 0.0512413
0.0549297 0.0586173 0.0623085 0.0696956 0.077119 0.0845729 0.0920433 0.0995348 0.107047 0.11456
0.122078 0.1296 0.137123 0.144652 0.152175 0.159698 0.16722 0.174742 0.18227 0.18979
0.197311 0.204831 0.212351 0.219878 0.227397 0.234917 0.242437 0.249958 0.257485 0.265005
0.272525 0.280046 0.287566 0.295094 0.302615 0.310136 0.317656 0.325177 0.332706 0.340227
0.347748 0.355269 0.36279 0.370319 0.37784 0.385362 0.392884 0.400405 0.407934 0.415456
0.422978 0.4305 0.438022 0.445552 0.453074 0.460597 0.468119 0.475642 0.483172 0.490694
0.498217 0.50574 0.513263 0.520793 0.528316 0.53584 0.543363 0.550886 0 0.00268299
0.00536767 0.00805402 0.0107397 0.0139191 0.016174 0.0184285 0.0206822 0.0229352 0.025189 0.026719
0.0282469 0.0297718 0.0312938 0.0336999 0.0357281 0.0377506 0.0397676 0.0417791 0.0437792 0.0474579
0.0511379 0.0548192 0.0585071 0.062127 0.0621432 0.0621594 0.0621756 0.0621918 0.062208 0.0658903
0.0695828 0.0732853 0.0769981 0.080721 0.0813229 0.0819247 0.0825266 0.0831285 0.0837157 0.0868631
0.0900131 0.0931657 0.0963208 0.0994779 0.106998 0.11452 0.122046 0.129578 0.137114 0.144657
0.152193 0.15973 0.167266 0.174802 0.182344 0.18988 0.197414 0.204949 0.212483 0.220025
0.227559 0.235094 0.242628 0.250163 0.257704 0.265239 0.272774 0.280309 0.287844 0.295386
0.302921 0.310457 0.317992 0.325527 0.33307 0.340606 0.348142 0.355677 0.363213 0.370756
0.378292 0.385829 0.393365 0.400901 0.408445 0.415981 0.423518 0.431054 0.438591 0.446135
0.453672 0.461209 0.468746 0.476283 0.483828 0.491365 0.498902 0.50644 0.513977 0.521522
0.52906 0.536598 0.544135 0.551673 0 0.00126444 0.00252926 0.00379476 0.00506106 0.00632818
0.0101157 0.0139115 0.0177189 0.0215328 0.0253293 0.0269125 0.0284856 0.0300518 0.0316108 0.0330056
0.0333307 0.0336554 0.0339798 0.034304 0.0346281 0.0364561 0.0382771 0.040089 0.0418958 0.0436932
0.0454935 0.0472985 0.0491156 0.0509376 0.0527638 0.0528905 0.0530173 0.053144 0.0532708 0.0534027
0.0551061 0.0568123 0.0585214 0.0602335 0.0619482 0.0656441 0.0693569 0.0730877 0.0768291 0.0805794
0.0843427 0.0881052 0.0918684 0.0956344 0.0994027 0.106938 0.114475 0.122016 0.129562 0.137111
0.144677 0.152229 0.159781 0.167333 0.174885 0.182445 0.189996 0.197547 0.205098 0.212649
0.220207 0.227757 0.235308 0.242858 0.250409 0.257967 0.265518 0.273068 0.280619 0.28817
0.295729 0.30328 0.310831 0.318383 0.325934 0.333493 0.341045 0.348596 0.356148 0.363699
0.371259 0.378811 0.386362 0.393914 0.401466 0.409026 0.416578 0.424131 0.431683 0.439235
0.446796 0.454348 0.4619 0.469453 0.477006 0.484566 0.492119 0.499672 0.507225 0.514778
0.522339 0.529892 0.537445 0.544998 0.552551 0 0.00126544 0.0025314 0.00379787 0.00506486
0.00633238 0.00822675 0.0101235 0.0120227 0.0139248 0.0158289 0.0177463 0.0196686 0.0215919 0.0235183
0.0254569 0.026428 0.0273963 0.0283603 0.0293198 0.0302791 0.0307552 0.0312298 0.0317023 0.0321726
0.0326864 0.0331412 0.033594 0.0340448 0.0344936 0.0349399 0.0358501 0.0367571 0.03766 0.0385586
0.0394484 0.0403373 0.0412248 0.0421116 0.0429981 0.0438852 0.0451962 0.0465136 0.0478377 0.0491676
0.049188 0.0499262 0.0506657 0.0514068 0.0521493 0.0528927 0.0547215 0.0565641 0.0584181 0.0602787
0.06214 0.0640112 0.0658836 0.067758 0.0696351 0.0715162 0.0734045 0.0752874 0.0771666 0.0790475
0.0809336 0.0840686 0.0872076 0.0903483 0.0934906 0.0961492 0.0969039 0.0976587 0.0984136 0.0991686
0.0999238 0.107515 0.115109 0.122707 0.130309 0.137916 0.145548 0.153155 0.160757 0.168359
0.17596 0.183581 0.19118 0.198778 0.206375 0.213972 0.221589 0.229186 0.236782 0.244378
0.251974 0.259589 0.267185 0.27478 0.282375 0.289971 0.297585 0.30518 0.312775 0.32037
0.327966 0.335578 0.343173 0.350768 0.358362 0.365958 0.373568 0.381163 0.388757 0.396352
0.403946 0.411555 0.41915 0.426744 0.434338 0.441933 0.44954 0.457135 0.464728 0.472322
0.479916 0.487523 0.495117 0.50271 0.510303 0.517897 0.525502 0.533095 0.540688 0.548281
0.555875 0 0.00126279 0.00252625 0.00379075 0.00505643 0.00632328 0.0082333 0.0101453 0.0120611
0.0139802 0.0159046 0.0178219 0.0197521 0.0216951 0.0236508 0.0256288 0.0266286 0.0276292 0.0286302
0.0296304 0.0306424 0.0308895 0.0311367 0.0313835 0.0316283 0.031818 0.0325687 0.033307 0.0340322
0.0347438 0.0354476 0.0358946 0.0363399 0.0367836 0.0372259 0.0376622 0.0380995 0.0385339 0.0389659
0.0393971 0.0398259 0.0402576 0.0406893 0.0411211 0.0415535 0.0419885 0.0424237 0.0428584 0.0432934
0.0437293 0.0441675 0.0450441 0.0459301 0.0468268 0.0477348 0.0486602 0.0493841 0.050107 0.0508321
0.0515604 0.052457 0.0526358 0.0528147 0.0529937 0.0531728 0.0533521 0.0543066 0.0552594 0.0562141
0.0571721 0.0581319 0.0591006 0.0600685 0.0610374 0.062009 0.0629823 0.0649501 0.0669128 0.06887
0.0708316 0.0727759 0.0747063 0.0766514 0.0786114 0.0805762 0.0825457 0.0865043 0.0904551 0.094381
0.0982907 0.102205 0.110032 0.117827 0.125552 0.133217 0.140887 0.148586 0.156263 0.163936
0.171604 0.179271 0.186953 0.194618 0.20228 0.209941 0.217602 0.225277 0.232937 0.240595
0.248252 0.255909 0.26358 0.271237 0.278893 0.286548 0.294202 0.301869 0.309524 0.317177
0.32483 0.332483 0.340146 0.347798 0.35545 0.3631 0.370751 0.378411 0.386061 0.39371
0.401359 0.409007 0.416664 0.424312 0.431959 0.439606 0.447252 0.454906 0.462553 0.470198
0.477843 0.485487 0.493138 0.500783 0.508426 0.516069 0.523711 0.531359 0.539001 0.546643
0.554284 0.561925 0 0.00126442 0.00252948 0.00379519 0.00506156 0.00632917 0.00824622 0.0101657
0.0120884 0.0140175 0.0159587 0.0169288 0.0179017 0.0188779 0.0198571 0.0208396 0.0218272 0.0228229
0.0238276 0.0248413 0.0258654 0.026383 0.0269023 0.0274253 0.0279519 0.0284849 0.0287732 0.0290629
0.0293549 0.0296496 0.0297479 0.0300494 0.0303523 0.030656 0.0309595 0.0312714 0.031365 0.0314585
0.0315522 0.0316461 0.0317153 0.0317523 0.0317892 0.0318261 0.031863 0.0318981 0.0320624 0.0322266
0.0323906 0.0325545 0.0327197 0.0328977 0.0330752 0.0332523 0.0334265 0.0335553 0.0336615 0.0337671
0.0338721 0.0339762 0.0340818 0.0341906 0.0342978 0.0344036 0.0345085 0.0345944 0.0346501 0.0347056
0.0347607 0.0348154 0.034869 0.0349668 0.0350643 0.0351612 0.0352577 0.0353521 0.0354742 0.0355949
0.0357141 0.0358323 0.0360249 0.0361253 0.0362253 0.0363249 0.0364244 0.0365141 0.0365987 0.0366835
0.0367682 0.0368529 0.0370045 0.0371294 0.0372542 0.0373787 0.037503 0.0376255 0.0378444 0.0380615
0.0382787 0.0384966 0.0387107 0.0389287 0.0391459 0.0393635 0.0395814 0.0397991 0.0400198 0.0402387
0.0404578 0.0406772 0.0408974 0.0411173 0.0413367 0.0415564 0.0417768 0.0419997 0.0422239 0.0424462
0.0426686 0.0428916 0.0431157 0.0434382 0.0437622 0.0440913 0.0444257 0.0445904 0.04476 0.0449301
0.0451005 0.0452714 0.0454435 0.0459293 0.0464074 0.0468858 0.04736 0.0478562 0.0483728 0.0488791
0.0493864 0.0498984 0.0504179 0.0504723 0.0505269 0.0505815 0.0506362 0.0506901 0.0517095 0.0527703
0.0538777 0.0549488 0.056033 0.0572351 0.0584152 0.0595968 0.0607842 0.061971 0.0623393 0.0627068
0.0630741 0.0634417 0.0638516 0.0646883 0.0655165 0.0663427 0.0671716 0.067999 0.0680598 0.0681206
0.0681813 0.0682419 0.0683023 0.0694373 0.070558 0.0716769 0.0727936 0.073904 0.0750533 0.076225
0.0774004 0.0785773 0.0797571 0.0810872 0.0824182 0.0837549 0.0850966 0.0867175 0.0876257 0.0885295
0.0894287 0.0903235 0.0912131 0.0957163 0.100195 0.104605 0.108925 0.113117 0.1213 0.129421
0.13747 0.145448 0.153338 0.161101 0.168863 0.176622 0.184379 0.192133 0.199883 0.207634
0.215382 0.223128 0.230872 0.234498 0.238123 0.241748 0.245372 0.249015 0.253127 0.257238
0.26135 0.265461 0.269572 0.277307 0.285045 0.292784 0.300523 0.308262 0.315989 0.323728
0.331466 0.339205 0.346944 0.354664 0.362402 0.370141 0.377879 0.385618 0.39333 0.401068
0.408806 0.416544 0.424282 0.431989 0.439726 0.447463 0.4552 0.462938 0.470638 0.478374
0.486111 0.493847 0.501584 0.509279 0.517014 0.524749 0.532484 0.540219 0.547908 0.55564
0.563373 0.571106 0.57884 0 0.00125412 0.00250918 0.00376555 0.00502337 0.00628276 0.00821407
0.0101481 0.0120849 0.0140287 0.0159869 0.0169596 0.0179362 0.0189168 0.0199015 0.0208903 0.0218847
0.0228899 0.0239068 0.0249355 0.0259771 0.0265057 0.0270375 0.027576 0.0281213 0.0286755 0.029241
0.0298142 0.0304002 0.0310002 0.0316267 0.0319455 0.0322641 0.0325835 0.0329039 0.0332389 0.033305
0.033371 0.0334371 0.0335032 0.0335579 0.0336377 0.033716 0.0337933 0.0338698 0.0339334 0.0341064
0.0342761 0.0344425 0.0346053 0.0347735 0.0349148 0.0350535 0.0351896 0.0353224 0.0354408 0.0355621
0.035683 0.0358032 0.0359219 0.0360346 0.036151 0.0362643 0.0363748 0.0364847 0.0366294 0.0367374
0.0368452 0.0369527 0.0370601 0.0371585 0.0373494 0.0375404 0.0377345 0.0379314 0.0383266 0.03857
0.0388152 0.039058 0.0392986 0.0395338 0.0399969 0.0404535 0.0409064 0.0413562 0.0418009 0.042258
0.0426995 0.0431442 0.0435922 0.0440432 0.0445164 0.0449837 0.0454618 0.0459446 0.0464356 0.0472444
0.0480715 0.0489107 0.0497679 0.0497908 0.0501866 0.0505815 0.0509753 0.0513681 0.0517627 0.0528883
0.0540138 0.055163 0.0563319 0.0575357 0.0587977 0.0600326 0.0612514 0.0624792 0.0637098 0.0645425
0.0653658 0.0661886 0.0670071 0.0679837 0.0683703 0.0687571 0.0691442 0.0695316 0.0699193 0.0704705
0.0710227 0.0715757 0.0721294 0.0727536 0.0728091 0.0728645 0.07292 0.0729754 0.0730309 0.0736547
0.0742776 0.0749002 0.0755218 0.0761397 0.0773838 0.0786308 0.0798859 0.0811419 0.0823972 0.0848904
0.0873887 0.0898565 0.092284 0.09468 0.0991522 0.103585 0.107903 0.112106 0.117871 0.119932
0.12199 0.124043 0.126091 0.128388 0.134684 0.140895 0.147004 0.153013 0.158923 0.166684
0.174462 0.182238 0.190013 0.197788 0.205533 0.213305 0.221078 0.22885 0.236621 0.244355
0.252125 0.259895 0.267665 0.275435 0.28316 0.290929 0.298698 0.306467 0.314236 0.321954
0.329722 0.33749 0.345258 0.353026 0.360738 0.368504 0.376271 0.384038 0.391805 0.39951
0.407275 0.415041 0.422806 0.430572 0.438271 0.446035 0.453799 0.461563 0.469327 0.477021
0.484783 0.492545 0.500307 0.50807 0.515759 0.523519 0.531279 0.539039 0.5468 0.554483
0.562239 0.569996 0.577753 0.58551 0 0.00125904 0.00251875 0.00377915 0.00504097 0.00630443
0.00823313 0.0101648 0.0120993 0.0140413 0.0159974 0.0169703 0.0179473 0.0189284 0.0199136 0.0209032
0.0218977 0.0229028 0.0239195 0.024948 0.0259894 0.0265185 0.0270503 0.0275879 0.0281322 0.0286858
0.0292487 0.0298193 0.0303993 0.0309918 0.0316139 0.03193 0.0322466 0.0325637 0.0328808 0.0332103
0.0334456 0.0336796 0.0339117 0.0341379 0.0342347 0.0343402 0.0344446 0.0345479 0.03465 0.0347548
0.0349544 0.0351472 0.0353336 0.035514 0.0356684 0.0357484 0.0358282 0.0359072 0.0359854 0.0360618
0.0360703 0.0360788 0.0360873 0.0360958 0.0361044 0.0362421 0.0363785 0.0365137 0.0366476 0.036841
0.0369174 0.0369938 0.0370701 0.0371462 0.0372185 0.0376776 0.038142 0.0386197 0.0391049 0.0395193
0.0399811 0.040432 0.0408819 0.0413337 0.0417924 0.0422671 0.0427321 0.0431945 0.0436591 0.0441321
0.0446221 0.0451032 0.0455804 0.046063 0.0465587 0.0475908 0.0486455 0.0497124 0.0507984 0.0515643
0.0516356 0.0517069 0.0517781 0.0518492 0.0519204 0.0530479 0.0542 0.0553802 0.056583 0.0578052
0.0590732 0.0603204 0.0615504 0.0627958 0.0640336 0.0646562 0.0652678 0.065877 0.0664843 0.0670954
0.06772 0.0683351 0.0689426 0.069552 0.0701655 0.0714133 0.07267 0.0739237 0.0751725 0.0764111
0.0770871 0.0777582 0.0784299 0.0791026 0.0798404 0.0801738 0.0805074 0.0808412 0.0811755 0.0815063
0.0817373 0.0819684 0.0821997 0.0824307 0.0826613 0.085163 0.0876501 0.0901231 0.0925388 0.0949275
0.0996882 0.104395 0.108996 0.113492 0.117851 0.123935 0.129951 0.135875 0.141709 0.158857
0.158931 0.159005 0.159079 0.159153 0.159227 0.166984 0.174739 0.182493 0.190245 0.197996
0.205736 0.213486 0.221235 0.228984 0.236733 0.244462 0.25221 0.259957 0.267705 0.275452
0.283173 0.29092 0.298667 0.306414 0.314161 0.321875 0.329621 0.337367 0.345113 0.35286
0.360567 0.368312 0.376058 0.383804 0.391549 0.399251 0.406995 0.41474 0.422484 0.430229
0.437925 0.445668 0.453411 0.461155 0.468899 0.476589 0.484331 0.492073 0.499815 0.507558
0.515243 0.522983 0.530724 0.538464 0.546205 0.553885 0.561622 0.56936 0.577098 0.584836
0 0.00127993 0.0025605 0.00384232 0.00512563 0.00641042 0.00831687 0.0102258 0.0121375 0.0140557
0.0159861 0.0169581 0.0179332 0.0189117 0.0198936 0.020879 0.0218732 0.0228764 0.0238894 0.0249124
0.0259476 0.0263916 0.0268372 0.0272863 0.0277388 0.0278619 0.0280098 0.0281579 0.0283061 0.0284543
0.0286029 0.0291463 0.0296939 0.0302487 0.0308123 0.0313968 0.0314683 0.0315397 0.031611 0.0316825
0.0317449 0.0319656 0.0321861 0.0324065 0.0326268 0.0328506 0.032932 0.0330133 0.0330946 0.0331756
0.0332456 0.033455 0.0336636 0.0338711 0.0340753 0.0342857 0.0343456 0.034405 0.0344641 0.0345228
0.0345745 0.0345836 0.0345928 0.0346019 0.034611 0.03462 0.0348337 0.0350428 0.0352476 0.0354448
0.0356332 0.0356569 0.0356805 0.035704 0.0357276 0.0357516 0.0358496 0.0359467 0.0360429 0.0361403
0.0362792 0.0363752 0.0364704 0.036565 0.0366587 0.0367498 0.0368584 0.0369661 0.0370733 0.0371807
0.0373387 0.037432 0.0375251 0.0376183 0.0377123 0.0378042 0.0380162 0.0382263 0.0384361 0.0386451
0.0388571 0.039077 0.0392923 0.0395033 0.0397145 0.0399284 0.0401445 0.0403589 0.0405721 0.0407859
0.0410027 0.041224 0.0414418 0.0416579 0.0418743 0.0420919 0.0423107 0.042528 0.0427449 0.0429622
0.0431812 0.0436266 0.0440721 0.0445209 0.044973 0.0454336 0.0459123 0.0463793 0.0468384 0.0473005
0.0477761 0.0482595 0.048741 0.0492229 0.0497089 0.0502031 0.0512207 0.0522446 0.053283 0.0543779
0.055487 0.0557908 0.056095 0.0563999 0.0567059 0.0570257 0.0578795 0.0587326 0.0595852 0.0604408
0.0613061 0.0625063 0.0636857 0.0648717 0.0660711 0.0672615 0.0684855 0.069686 0.0708691 0.0720437
0.0732109 0.073618 0.0740245 0.0744314 0.0748386 0.0752371 0.0754046 0.0755722 0.0757398 0.0759074
0.0760773 0.0766775 0.0772784 0.0778802 0.078483 0.0790864 0.0814333 0.0837826 0.0861292 0.0884479
0.0907456 0.0952794 0.0998666 0.10434 0.108672 0.112898 0.121226 0.129522 0.137749 0.145802
0.153685 0.16143 0.169173 0.176913 0.18465 0.192384 0.200114 0.207844 0.215572 0.223298
0.231023 0.233278 0.235533 0.237787 0.240042 0.242294 0.247761 0.253228 0.258694 0.264161
0.269628 0.277343 0.285063 0.292784 0.300504 0.308225 0.315933 0.323653 0.331374 0.339094
0.346815 0.354517 0.362237 0.369957 0.377677 0.385398 0.393093 0.400813 0.408533 0.416252
0.423972 0.431663 0.439381 0.4471 0.45482 0.462539 0.470224 0.477942 0.48566 0.493378
0.501097 0.508777 0.516494 0.524211 0.531928 0.539645 0.54732 0.555034 0.562749 0.570465
0.57818 0 0.00127754 0.00255579 0.00383515 0.0051158 0.00639774 0.00829933 0.0102029 0.0121093
0.0140205 0.0159398 0.016904 0.01787 0.018838 0.0198083 0.0207808 0.0217545 0.0227333 0.0237174
0.024706 0.0256984 0.0266891 0.0276862 0.0286914 0.0296919 0.0307003 0.0307761 0.0308519 0.0309277
0.0310032 0.0310731 0.0319947 0.0328969 0.0337787 0.0346393 0.0354975 0.0359454 0.0363911 0.0368347
0.0372772 0.0377142 0.0381528 0.0385889 0.0390241 0.0394586 0.0398873 0.0403204 0.0407536 0.0411871
0.0416209 0.0420553 0.0424915 0.0429266 0.0433625 0.0437994 0.0442381 0.0451161 0.0460026 0.0468956
0.0477962 0.0487219 0.0496688 0.0506082 0.051541 0.0524808 0.0534301 0.0541286 0.054832 0.0555375
0.0562446 0.0573088 0.0575039 0.0576992 0.0578947 0.0580903 0.0582861 0.0592697 0.0602524 0.0612356
0.0622185 0.0632012 0.0652015 0.067189 0.0691668 0.071154 0.0731376 0.0750969 0.0770821 0.0790829
0.0810877 0.0830957 0.0871165 0.0911515 0.095152 0.0991065 0.103057 0.105658 0.108263 0.110876
0.113485 0.116527 0.121776 0.126993 0.132179 0.137334 0.142459 0.150171 0.157885 0.165597
0.173306 0.181012 0.188708 0.19641 0.20411 0.211809 0.219507 0.227195 0.234889 0.242583
0.250275 0.257966 0.26565 0.273339 0.281026 0.288713 0.296399 0.30408 0.311764 0.319447
0.327129 0.33481 0.342488 0.350167 0.357846 0.365524 0.373201 0.380875 0.38855 0.396225
0.403899 0.411572 0.419243 0.426915 0.434586 0.442256 0.449926 0.457593 0.465261 0.472929
0.480596 0.488262 0.495927 0.503592 0.511256 0.518919 0.526582 0.534243 0.541904 0.549565
0.557226 0.564886 0 0.0012741 0.00254882 0.00382399 0.00510039 0.00637802 0.00827395 0.010172
0.0120724 0.0139757 0.0158832 0.0177925 0.019707 0.0216265 0.0235505 0.0254826 0.0264535 0.0274213
0.0283843 0.0293423 0.029961 0.0309792 0.0319897 0.0329897 0.0339795 0.0349577 0.0358666 0.0367723
0.0376738 0.0385723 0.0394619 0.0403525 0.0412416 0.0421296 0.0430166 0.0439029 0.0456801 0.0474746
0.0492836 0.0511023 0.0529373 0.0537782 0.0546203 0.0554644 0.0563104 0.0576064 0.0585246 0.0594447
0.0603667 0.0612907 0.0622162 0.0640917 0.0659701 0.0678512 0.0697349 0.0716207 0.0735166 0.0754042
0.0772927 0.0791828 0.0810739 0.0848701 0.0886653 0.0924653 0.0962698 0.100089 0.107793 0.115501
0.123162 0.130783 0.13842 0.14607 0.153718 0.161365 0.16901 0.176653 0.184301 0.191946
0.199589 0.20723 0.21487 0.222513 0.230153 0.237792 0.24543 0.253067 0.260707 0.268344
0.27598 0.283616 0.29125 0.298888 0.306523 0.314156 0.32179 0.329422 0.337057 0.34469
0.352321 0.359952 0.367582 0.375215 0.382845 0.390475 0.398104 0.405732 0.413362 0.42099
0.428618 0.436245 0.443871 0.451499 0.459125 0.466751 0.474376 0.482 0.489626 0.49725
0.504874 0.512497 0.520119 0.527743 0.535364 0.542986 0.550607 0.558228 0 0.00127143
0.00254323 0.00381557 0.0050885 0.00636204 0.0101415 0.0139324 0.0177225 0.0215093 0.0252999 0.02579
0.0262789 0.0267669 0.0272541 0.0276832 0.0290735 0.0304585 0.0318384 0.0332132 0.0345854 0.0364266
0.0382582 0.040073 0.0418837 0.0436894 0.0455006 0.0473092 0.0491192 0.0509378 0.0527678 0.054604
0.0564416 0.058282 0.0601253 0.0619711 0.065673 0.0693889 0.0731208 0.0768676 0.0806183 0.0843888