# vtk DataFile Version 2.0
tracks
ASCII
DATASET POLYDATA
POINTS 2620 float
-1.001 -0.05 0.0011 -0.900789 -0.0500215 0.0010973 -0.800577 -0.050043 0.00109461 -0.700366 -0.0500645
0.00109193 -0.600155 -0.0500859 0.00108925 -0.499943 -0.0501072 0.00108658 -0.424945 -0.050111 0.001079
-0.349947 -0.0501508 0.00106919 -0.274949 -0.0501903 0.00105948 -0.19995 -0.0502294 0.00104985 -0.124952
-0.0502681 0.0010403 -0.0499538 -0.050277 0.00104082 0.0250446 -0.0502819 0.00104971 0.100043 -0.0502869
0.00105867 0.175041 -0.0502919 0.00106771 0.25004 -0.050297 0.00107682 0.400037 -0.0502876 0.0010929
0.550035 -0.0502808 0.00110753 0.700032 -0.0502739 0.00112237 0.85003 -0.0502669 0.0011374 1.00003
-0.0502599 0.00115263 1.15003 -0.0502695 0.00116002 1.30002 -0.0502715 0.0011647 1.45002 -0.0502734
0.0011694 1.60002 -0.0502754 0.00117412 1.75002 -0.0502774 0.00117887 1.90002 -0.0502851 0.00118181
2.05002 -0.0502882 0.00118388 2.20001 -0.0502914 0.00118596 2.35001 -0.0502946 0.00118804 2.50001
-0.0502977 0.00119012 2.65001 -0.0503049 0.00119127 2.80001 -0.0503097 0.00119208 2.95001 -0.0503146
0.00119289 3.10001 -0.0503195 0.0011937 3.25001 -0.0503243 0.0011945 3.40001 -0.0503314 0.00119493
3.55001 -0.0503371 0.00119559 3.70001 -0.0503428 0.00119626 3.85001 -0.0503485 0.00119692 4.00001
-0.0503542 0.00119759 4.15 -0.0503612 0.00119784 4.3 -0.0503678 0.00119855 4.45 -0.0503744
0.00119927 4.6 -0.050381 0.00119998 4.75 -0.0503876 0.00120069 4.9 -0.0503945 0.00120089
5.05 -0.0504017 0.00120169 5.2 -0.0504089 0.0012025 5.35 -0.0504161 0.00120331 5.5
-0.0504233 0.00120411 5.65 -0.0504301 0.00120428 5.8 -0.0504376 0.00120519 5.95 -0.0504452
0.00120611 6.1 -0.0504528 0.00120703 6.25 -0.0504603 0.00120794 6.4 -0.0504671 0.00120809
6.55 -0.0504748 0.0012091 6.7 -0.0504826 0.00121012 6.85 -0.0504904 0.00121113 7
-0.0504982 0.00121214 7.15 -0.0505049 0.00121228 7.3 -0.0505129 0.00121338 7.45 -0.0505209
0.00121449 7.6 -0.0505289 0.00121559 7.75 -0.0505369 0.0012167 7.9 -0.0505435 0.00121683
8.05 -0.0505516 0.00121801 8.2 -0.0505597 0.00121919 8.35 -0.0505678 0.00122037 8.5
-0.050576 0.00122155 8.65 -0.0505825 0.00122168 8.8 -0.0505907 0.00122293 8.95 -0.050599
0.00122418 9.1 -0.0506072 0.00122543 9.25 -0.0506155 0.00122668 9.4 -0.0506219 0.0012268
9.55 -0.0506708 0.00122877 9.7 -0.0507649 0.00123149 9.85 -0.0509041 0.00123496 10
-0.0510885 0.00123918 -1.001 -0.05 0.0537316 -0.900807 -0.0501068 0.0535739 -0.800614 -0.050213
0.0533887 -0.700421 -0.0503421 0.053171 -0.600229 -0.0505014 0.0529195 -0.500035 -0.050691 0.0526342
-0.425004 -0.0509309 0.0524174 -0.349973 -0.0512582 0.0521382 -0.274943 -0.0516303 0.0518821 -0.199912
-0.0520332 0.0516693 -0.124879 -0.0524177 0.0515392 -0.0498862 -0.0526626 0.0515892 0.0251067 -0.0528514
0.0517636 0.100099 -0.0530309 0.0520056 0.175092 -0.0532174 0.0522959 0.250087 -0.0533991 0.0526209
0.400077 -0.0537176 0.0532717 0.550067 -0.0540358 0.0537966 0.700057 -0.0543159 0.054271 0.850048
-0.0545581 0.0546944 1.00003 -0.0547687 0.0550666 1.15003 -0.0550993 0.0553567 1.30003 -0.0553952
0.0556253 1.45002 -0.055689 0.0558583 1.60002 -0.0559809 0.0560556 1.72133 -0.0562155 0.0561863
1.72707 -0.0562273 0.0561917 1.73281 -0.0562391 0.056197 1.73854 -0.056251 0.0562023 1.74428
-0.0562629 0.0562075 1.75002 -0.0562748 0.0562127 1.90002 -0.0565886 0.0563484 2.05002 -0.0568974
0.0564672 2.20001 -0.0572022 0.0565687 2.35001 -0.0575029 0.0566529 2.50001 -0.0577994 0.0567199
2.65001 -0.0581058 0.056776 2.80001 -0.0584068 0.0568256 2.95001 -0.0587071 0.0568679 3.10001
-0.0590066 0.0569029 3.25001 -0.0593054 0.0569306 3.40001 -0.0596111 0.0569535 3.55001 -0.0599125
0.0569757 3.70001 -0.0602128 0.0569962 3.85001 -0.0605119 0.057015 4.00001 -0.0608098 0.0570321
4.15 -0.0611119 0.0570472 4.3 -0.0614121 0.0570631 4.45 -0.0617112 0.0570784 4.6
-0.0620091 0.0570932 4.75 -0.0623059 0.0571075 4.9 -0.0626041 0.0571201 5.05 -0.0629019
0.057134 5.2 -0.0631985 0.0571476 5.35 -0.0634938 0.0571609 5.5 -0.0637878 0.057174
5.65 -0.0640811 0.0571854 5.8 -0.0643751 0.0571983 5.95 -0.0646679 0.0572111 6.1
-0.0649595 0.0572238 6.25 -0.0652499 0.0572363 6.4 -0.0655382 0.0572468 6.55 -0.065828
0.0572592 6.7 -0.0661166 0.0572716 6.85 -0.066404 0.0572838 7 -0.0666902 0.057296
7.15 -0.0669736 0.0573061 7.3 -0.067259 0.0573183 7.45 -0.0675432 0.0573304 7.6
-0.0678263 0.0573425 7.75 -0.0681082 0.0573545 7.9 -0.0683868 0.0573644 8.05 -0.0686677
0.0573765 8.2 -0.0689476 0.0573886 8.35 -0.0692263 0.0574007 8.5 -0.0695039 0.0574127
8.65 -0.0697778 0.0574226 8.8 -0.0700542 0.0574347 8.95 -0.0703294 0.0574467 9.1
-0.0706035 0.0574586 9.25 -0.0708763 0.0574704 9.4 -0.071145 0.0574798 9.55 -0.071417
0.0574916 9.7 -0.0716884 0.0575032 9.85 -0.0719591 0.0575148 10 -0.0722293 0.0575262
-1.001 -0.05 0.106363 -0.900818 -0.0500789 0.106135 -0.800636 -0.050155 0.105858 -0.700455
-0.050257 0.105536 -0.600274 -0.0504284 0.104994 -0.50009 -0.0506689 0.104235 -0.424996 -0.0509478
0.103656 -0.349901 -0.0512868 0.103061 -0.274807 -0.0516303 0.102543 -0.199711 -0.051916 0.102133
-0.124606 -0.0522396 0.102055 -0.0496038 -0.0524655 0.102194 0.0253985 -0.0526279 0.102446 0.1004
-0.0527748 0.102779 0.175402 -0.052939 0.103196 0.250412 -0.0531203 0.103697 0.400348 -0.0534546
0.104736 0.550284 -0.0537888 0.105641 0.700221 -0.0540872 0.106452 0.850158 -0.0543574 0.107088
1.00009 -0.0545992 0.107547 1.15007 -0.0549874 0.107821 1.30006 -0.0552266 0.10812 1.45005
-0.0554199 0.108398 1.60003 -0.0556071 0.108642 1.75002 -0.0557883 0.108853 1.90002 -0.0560601
0.109003 2.05002 -0.0562515 0.109159 2.20001 -0.0564375 0.109299 2.35001 -0.0566211 0.109423
2.50001 -0.0568025 0.10953 2.65001 -0.057058 0.109605 2.80001 -0.0572538 0.109676 2.95001
-0.0574486 0.109741 3.10001 -0.0576428 0.109798 3.25001 -0.0578364 0.109848 3.40001 -0.0580906
0.10989 3.55001 -0.0582914 0.109929 3.70001 -0.0584906 0.109967 3.85001 -0.0586886 0.110003
4 -0.0588854 0.110038 4.15 -0.0591352 0.110072 4.3 -0.0593383 0.110101 4.45
-0.0595398 0.11013 4.6 -0.05974 0.110158 4.75 -0.059939 0.110186 4.9 -0.0601841
0.110217 5.05 -0.060387 0.110241 5.2 -0.0605883 0.110265 5.35 -0.0607882 0.110289
5.5 -0.0609868 0.110312 5.65 -0.0612263 0.110342 5.8 -0.0614274 0.110363 5.95
-0.061627 0.110383 6.1 -0.0618253 0.110403 6.25 -0.0620223 0.110423 6.4 -0.0622561
0.110452 6.55 -0.0624549 0.11047 6.7 -0.0626522 0.110488 6.85 -0.0628484 0.110506
7 -0.0630433 0.110523 7.15 -0.0632715 0.110552 7.3 -0.0634677 0.110568 7.45
-0.0636625 0.110584 7.6 -0.0638562 0.1106 7.75 -0.0640486 0.110616 7.9 -0.0642715
0.110644 8.05 -0.0644649 0.110659 8.2 -0.0646571 0.110674 8.35 -0.0648481 0.110689
8.5 -0.065038 0.110704 8.65 -0.0652558 0.110732 8.8 -0.0654461 0.110747 8.95
-0.0656351 0.110761 9.1 -0.0658229 0.110776 9.25 -0.0660095 0.11079 9.4 -0.0662217
0.110817 9.55 -0.0664094 0.11083 9.7 -0.0665963 0.110843 9.85 -0.0667827 0.110856
10 -0.0669684 0.110869 -1.001 -0.05 0.158995 -0.900796 -0.0500893 0.158765 -0.800593
-0.0501937 0.158413 -0.700392 -0.0503553 0.157671 -0.600196 -0.0505872 0.156453 -0.499992 -0.0508805
0.154609 -0.42472 -0.051477 0.153009 -0.349436 -0.051935 0.152101 -0.274148 -0.0523229 0.151563
-0.198859 -0.0527061 0.151303 -0.1237 -0.0530077 0.151401 -0.0487795 -0.0531106 0.151614 0.02614
-0.0531516 0.152137 0.101058 -0.0532399 0.152871 0.175974 -0.0533521 0.153697 0.250952 -0.0534506
0.154549 0.40079 -0.0535586 0.156007 0.55063 -0.0539684 0.157223 0.700473 -0.0543577 0.158007
0.850316 -0.0546836 0.158627 1.00014 -0.0549809 0.15907 1.15012 -0.0554249 0.159328 1.30009
-0.0557196 0.159612 1.45007 -0.0559322 0.159885 1.60005 -0.0560761 0.160142 1.75002 -0.0562141
0.160367 1.90002 -0.0564436 0.16053 2.05002 -0.0565923 0.160699 2.20002 -0.0567294 0.160855
2.35001 -0.0568583 0.160995 2.50001 -0.0569849 0.161118 2.65001 -0.0571862 0.161209 2.80001
-0.0573276 0.161297 2.95001 -0.0574667 0.161378 3.10001 -0.0576041 0.161452 3.25001 -0.0577411
0.161519 3.40001 -0.0579387 0.161577 3.55001 -0.058083 0.161633 3.70001 -0.058225 0.161688
3.85001 -0.058365 0.161741 4 -0.0585039 0.161793 4.15 -0.0586957 0.161844 4.3
-0.0588409 0.161891 4.45 -0.058984 0.161937 4.6 -0.0591253 0.161982 4.75 -0.0592654
0.162028 4.9 -0.0594512 0.162076 5.05 -0.0595952 0.162118 5.2 -0.0597372 0.162159
5.35 -0.0598774 0.162201 5.5 -0.0600162 0.162241 5.65 -0.0601954 0.162289 5.8
-0.0603368 0.162327 5.95 -0.0604763 0.162365 6.1 -0.0606142 0.162402 6.25 -0.0607508
0.16244 6.4 -0.0609235 0.162486 6.55 -0.0610619 0.162522 6.7 -0.0611986 0.162557
6.85 -0.0613338 0.162593 7 -0.0614677 0.162628 7.15 -0.0616343 0.162674 7.3
-0.0617695 0.162708 7.45 -0.0619032 0.162741 7.6 -0.0620355 0.162775 7.75 -0.0621666
0.162809 7.9 -0.0623273 0.162854 8.05 -0.0624594 0.162887 8.2 -0.0625901 0.16292
8.35 -0.0627194 0.162952 8.5 -0.0628476 0.162985 8.65 -0.0630028 0.163031 8.8
-0.0631314 0.163063 8.95 -0.0632586 0.163095 9.1 -0.0633844 0.163127 9.25 -0.0635091
0.163159 9.4 -0.0636584 0.163203 9.55 -0.0637841 0.163234 9.7 -0.063909 0.163265
9.85 -0.0640331 0.163295 10 -0.0641567 0.163325 -1.001 -0.05 0.211626 -0.947553
-0.0500804 0.211465 -0.894107 -0.0501651 0.211269 -0.840661 -0.050254 0.211039 -0.787215 -0.0503864
0.210743 -0.72378 -0.0506265 0.210255 -0.67901 -0.0508993 0.209599 -0.634243 -0.051228 0.208718
-0.58948 -0.0515605 0.207701 -0.544721 -0.0518979 0.206547 -0.499928 -0.0522416 0.205254 -0.469694
-0.0525279 0.204209 -0.439462 -0.0528232 0.203103 -0.409225 -0.0531019 0.202126 -0.378984 -0.0533653
0.201271 -0.330008 -0.0537758 0.200029 -0.288967 -0.0541035 0.199143 -0.247922 -0.0544296 0.198478
-0.206873 -0.0547571 0.198131 -0.165822 -0.0550461 0.198076 -0.124889 -0.0552554 0.198287 -0.0496157
-0.0555064 0.199077 0.0256553 -0.0555849 0.200089 0.100921 -0.0556281 0.201417 0.176186 -0.0556977
0.202811 0.226756 -0.0557397 0.203601 0.2317 -0.055743 0.20367 0.236643 -0.0557461 0.203739
0.241587 -0.0557491 0.203807 0.246531 -0.0557521 0.203875 0.251475 -0.055755 0.203941 0.326234
-0.0557968 0.204937 0.400995 -0.0558435 0.205803 0.475757 -0.0558943 0.206541 0.55052 -0.0559753
[...]
POINT_DATA 2620
FIELD attributes 4
age 1 2620 float
0 0.00501114 0.0100223 0.0150334 0.0200446 0.0250557 0.0288052 0.0325528 0.0363004 0.0400481 0.0437957
0.0475441 0.0512897 0.0550353 0.0587808 0.0625263 0.0700231 0.0775221 0.0850211 0.0925201 0.100019
0.107519 0.115019 0.122519 0.130019 0.137519 0.145019 0.152518 0.160018 0.167518 0.175018
0.182518 0.190017 0.197517 0.205017 0.212516 0.220016 0.227516 0.235016 0.242515 0.250015
0.257515 0.265015 0.272514 0.280014 0.287514 0.295014 0.302513 0.310013 0.317513 0.325013
0.332513 0.340012 0.347512 0.355012 0.362511 0.370011 0.377511 0.385011 0.392511 0.40001
0.40751 0.41501 0.42251 0.43001 0.437509 0.445009 0.452509 0.460009 0.467508 0.475008
0.482508 0.490008 0.497508 0.505007 0.512507 0.520007 0.527506 0.535004 0.542502 0.549998
0 0.00502519 0.0100515 0.0150717 0.0200834 0.0250869 0.0288246 0.0325564 0.0362814 0.0399997
0.0437119 0.0474169 0.0511154 0.0548123 0.0585092 0.0622081 0.0696183 0.0770543 0.0845052 0.0919711
0.0994518 0.106946 0.114442 0.121938 0.129436 0.135501 0.135788 0.136075 0.136362 0.136649
0.136936 0.144436 0.151936 0.159435 0.166934 0.174432 0.181929 0.189426 0.196923 0.20442
0.211916 0.219413 0.226909 0.234405 0.241902 0.249398 0.256896 0.264392 0.271889 0.279386
0.286883 0.294381 0.301878 0.309375 0.316873 0.32437 0.331868 0.339366 0.346864 0.354361
0.361859 0.369358 0.376855 0.384354 0.391852 0.39935 0.406849 0.414347 0.421846 0.429344
0.436843 0.444342 0.451841 0.45934 0.466839 0.474338 0.481838 0.489337 0.496836 0.504336
0.511835 0.519335 0.526835 0.534335 0.541834 0.549334 0 0.00502723 0.0100561 0.015079
0.0200951 0.0251045 0.0288502 0.0325886 0.0363178 0.0400421 0.0437569 0.0474604 0.0511585 0.0548557
0.0585521 0.0622483 0.069646 0.0770711 0.0845145 0.0919798 0.0994667 0.106969 0.114473 0.121979
0.129487 0.136996 0.144509 0.152017 0.159525 0.167031 0.174537 0.182047 0.189552 0.197056
0.20456 0.212064 0.219573 0.227077 0.234581 0.242085 0.249589 0.257098 0.264602 0.272107
0.279611 0.287115 0.294625 0.30213 0.309635 0.317139 0.324644 0.332154 0.339659 0.347164
0.354669 0.362174 0.369685 0.37719 0.384695 0.392201 0.399706 0.407217 0.414723 0.422229
0.429734 0.43724 0.444752 0.452258 0.459764 0.46727 0.474776 0.482288 0.489794 0.497301
0.504807 0.512314 0.519826 0.527333 0.53484 0.542346 0.549853 0 0.00502939 0.0100647
0.0150968 0.0201227 0.0251434 0.0289076 0.0326601 0.0364005 0.0401305 0.0438437 0.0475371 0.0512259
0.0549144 0.0586024 0.0622941 0.0696817 0.0771062 0.0845599 0.0920286 0.0995183 0.107028 0.11454
0.122055 0.129575 0.137096 0.144621 0.152141 0.159661 0.167181 0.1747 0.182223 0.189741
0.197259 0.204776 0.212293 0.219815 0.227332 0.234849 0.242366 0.249883 0.257405 0.264923
0.27244 0.279957 0.287475 0.294998 0.302516 0.310034 0.317551 0.325069 0.332593 0.340111
0.347629 0.355147 0.362665 0.370189 0.377708 0.385226 0.392744 0.400263 0.407787 0.415306
0.422825 0.430344 0.437863 0.445388 0.452907 0.460426 0.467945 0.475465 0.48299 0.49051
0.498029 0.505549 0.513069 0.520594 0.528114 0.535634 0.543154 0.550674 0 0.00268633
0.0053743 0.00806392 0.0107529 0.0139421 0.0161914 0.0184402 0.0206882 0.0229353 0.0251832 0.0266981
0.028211 0.029721 0.0312281 0.0336633 0.0356958 0.0377227 0.0397442 0.0417603 0.0437651 0.0474427
0.0511224 0.0548042 0.0584931 0.0609793 0.0612227 0.0614662 0.0617097 0.0619532 0.0621968 0.065881
0.0695751 0.0732792 0.0769933 0.0807172 0.0813703 0.0820234 0.0826766 0.0833299 0.0839636 0.087061
0.0901605 0.0932622 0.096366 0.0994715 0.106988 0.114507 0.12203 0.129558 0.13709 0.144627
0.152159 0.159691 0.167223 0.174754 0.18229 0.18982 0.19735 0.20488 0.21241 0.219944
0.227474 0.235003 0.242533 0.250063 0.257598 0.265128 0.272658 0.280188 0.287718 0.295254
0.302784 0.310314 0.317845 0.325375 0.332911 0.340442 0.347973 0.355503 0.363034 0.370571
0.378102 0.385633 0.393164 0.400695 0.408232 0.415764 0.423295 0.430827 0.438359 0.445896
0.453428 0.46096 0.468492 0.476024 0.483562 0.491094 0.498627 0.506159 0.513691 0.52123
0.528762 0.536295 0.543828 0.551361 0 0.00126433 0.00252904 0.00379441 0.00506057 0.00632754
0.0101145 0.0139097 0.0177162 0.0215288 0.0253235 0.026887 0.0284404 0.0299872 0.0315269 0.0329583
0.0332907 0.0336227 0.0339543 0.0342858 0.0346171 0.0364438 0.0382636 0.0400743 0.0418798 0.043676
0.045475 0.0472795 0.0490962 0.0509182 0.0525605 0.0525974 0.0526344 0.0526713 0.0527083 0.0527452
0.0545759 0.0564102 0.0582481 0.0600896 0.0619344 0.0656336 0.0693495 0.073083 0.0768263 0.0805763
0.0843376 0.088099 0.0918613 0.0956259 0.0993923 0.106924 0.114459 0.121997 0.129538 0.137083
0.144643 0.15219 0.159736 0.167283 0.174829 0.182383 0.189929 0.197474 0.205018 0.212563
0.220115 0.227659 0.235204 0.242748 0.250293 0.257845 0.26539 0.272934 0.280479 0.288024
0.295577 0.303122 0.310667 0.318212 0.325757 0.333311 0.340856 0.348401 0.355947 0.363492
0.371046 0.378592 0.386137 0.393683 0.401229 0.408783 0.416329 0.423875 0.431421 0.438968
0.446522 0.454068 0.461615 0.469161 0.476708 0.484263 0.491809 0.499356 0.506903 0.51445
0.522005 0.529552 0.537099 0.544646 0.552193 0 0.00126535 0.00253121 0.00379757 0.00506445
0.00633185 0.00822597 0.0101225 0.0120214 0.0139231 0.0158269 0.017744 0.0196659 0.0215887 0.0235146
0.0254525 0.026423 0.0273908 0.0283541 0.0293131 0.0302717 0.0307308 0.0311884 0.0316441 0.0320977
0.0325974 0.0330679 0.0335364 0.0340026 0.0344667 0.0349281 0.0358372 0.036743 0.0376447 0.0385421
0.0394307 0.0403187 0.0412052 0.042091 0.0429767 0.0438633 0.0449916 0.0461244 0.0472622 0.048405
0.0486348 0.0494777 0.0503225 0.0511694 0.0520183 0.0528682 0.0546974 0.0565406 0.0583954 0.0602571
0.0621193 0.0639914 0.0658643 0.067739 0.0696162 0.0714974 0.0733856 0.0752688 0.0771478 0.0790284
0.080914 0.0842303 0.0875505 0.0908715 0.0941931 0.0969436 0.0975311 0.0981187 0.0987064 0.0992941
0.0998818 0.107457 0.115035 0.122621 0.130215 0.137817 0.145444 0.153048 0.160647 0.168245
0.175843 0.183459 0.191054 0.198648 0.206242 0.213836 0.221447 0.22904 0.236632 0.244225
0.251817 0.259427 0.267019 0.274611 0.282203 0.289795 0.297403 0.304995 0.312586 0.320177
0.327769 0.335375 0.342967 0.350558 0.358149 0.365741 0.373345 0.380937 0.388527 0.396118
0.403709 0.411313 0.418903 0.426494 0.434084 0.441675 0.449277 0.456868 0.464457 0.472047
0.479638 0.487239 0.494829 0.502419 0.510008 0.517598 0.525198 0.532787 0.540377 0.547966
0.555556 0 0.00126274 0.00252615 0.00379059 0.0050562 0.00632298 0.00823288 0.0101448 0.0120604
0.0139794 0.0159037 0.0178207 0.0197507 0.0216933 0.0236486 0.0256257 0.0266249 0.0276247 0.0286248
0.0296236 0.0306341 0.0308634 0.0310928 0.0313218 0.0315492 0.0317297 0.0324955 0.0332483 0.0339878
0.0347129 0.0354297 0.0358757 0.0363198 0.0367623 0.0372033 0.0376385 0.0380747 0.038508 0.0389386
0.0393684 0.0397964 0.0402272 0.040658 0.0410889 0.0415204 0.041955 0.0423896 0.0428238 0.0432585
0.0436942 0.0441324 0.0450085 0.0458953 0.0467932 0.0477012 0.0486261 0.0492445 0.0498629 0.0504829
0.051105 0.0518593 0.0521498 0.0524407 0.0527318 0.0530232 0.0533152 0.0542704 0.0552218 0.0561766
0.0571375 0.0580992 0.0590678 0.0600364 0.0610061 0.0619779 0.0629512 0.0649143 0.0668733 0.0688278
0.0707855 0.0727242 0.0746496 0.0765889 0.0785423 0.0805011 0.0824617 0.0863973 0.0903274 0.0942364
0.0981301 0.102025 0.109805 0.11756 0.125262 0.132918 0.140581 0.148275 0.155948 0.163617
0.171282 0.178944 0.186621 0.194282 0.201941 0.209599 0.217255 0.224925 0.232581 0.240236
0.247889 0.255543 0.263208 0.270861 0.278513 0.286164 0.293815 0.301477 0.309128 0.316778
0.324427 0.332076 0.339734 0.347382 0.35503 0.362677 0.370324 0.377979 0.385625 0.393271
0.400916 0.40856 0.416212 0.423857 0.431501 0.439144 0.446786 0.454435 0.462078 0.46972
0.477361 0.485002 0.492649 0.500289 0.507929 0.515568 0.523207 0.53085 0.538489 0.546127
0.553765 0.561403 0 0.00126442 0.00252949 0.00379521 0.00506157 0.00632919 0.00824624 0.0101657
0.0120885 0.0140176 0.0159588 0.0169288 0.0179018 0.0188779 0.0198571 0.0208396 0.0218272 0.0228228
0.0238275 0.0248411 0.0258652 0.0263827 0.026902 0.027425 0.0279515 0.0284843 0.0287336 0.0289838
0.0292358 0.0294897 0.0295927 0.0299237 0.0302564 0.0305908 0.0309249 0.0312688 0.0313728 0.0314768
0.031581 0.0316853 0.0317607 0.0317649 0.031769 0.0317732 0.0317773 0.0317814 0.0319677 0.0321538
0.0323397 0.0325254 0.0327131 0.0328665 0.0330196 0.0331724 0.033323 0.0334392 0.033566 0.033692
0.0338171 0.0339409 0.0340669 0.0341907 0.0343125 0.0344326 0.0345513 0.0346458 0.034669 0.0346922
0.0347154 0.0347385 0.0347613 0.034877 0.034992 0.0351064 0.03522 0.0353329 0.0354327 0.0355315
0.0356294 0.0357265 0.0358766 0.0360052 0.0361333 0.0362612 0.0363886 0.036498 0.0366151 0.0367323
0.0368495 0.0369666 0.0372297 0.0373049 0.0373801 0.0374553 0.0375303 0.0376048 0.0377568 0.0379082
0.0380597 0.0382115 0.0386884 0.0387234 0.0387584 0.0387935 0.0388285 0.0389784 0.0389784 0.0389784
0.0389784 0.0389784 0.0389784 0.0391374 0.0392967 0.0394561 0.0396157 0.0397753 0.039994 0.0402126
0.0404313 0.0406502 0.0408697 0.0410884 0.0413067 0.0415253 0.0417446 0.0419656 0.0421873 0.042408
0.0426293 0.0428514 0.0430746 0.0434522 0.0438318 0.0442167 0.044607 0.0447647 0.0448852 0.0450059
0.0451268 0.045248 0.0453699 0.0458473 0.0463213 0.0467957 0.0472697 0.0477595 0.048241 0.0487171
0.0491987 0.0496845 0.0500659 0.0501128 0.0501598 0.0502068 0.0502539 0.050301 0.0503395 0.050378
0.0504166 0.0504553 0.0504939 0.0515169 0.0525853 0.0536888 0.0547573 0.0558427 0.0570317 0.0581961
0.0593732 0.0605569 0.061739 0.0620681 0.0623964 0.0627247 0.0630532 0.0634122 0.0636572 0.0639015
0.0641457 0.0643902 0.0646639 0.0646782 0.0646925 0.0647067 0.064721 0.0647353 0.0653349 0.0659352
0.0665362 0.0671377 0.0677377 0.0689338 0.0701114 0.0712872 0.072462 0.0736302 0.0747648 0.0759346
0.0771092 0.078286 0.0794572 0.0805647 0.0816725 0.0827839 0.0838983 0.0851623 0.0862966 0.0874242
0.0885449 0.089659 0.0907651 0.0952112 0.0996382 0.104024 0.108332 0.112513 0.120659 0.128752
0.13679 0.144771 0.152656 0.160411 0.168166 0.175919 0.183668 0.191415 0.199158 0.206901
0.214642 0.222381 0.230117 0.232409 0.2347 0.236991 0.239283 0.241577 0.247018 0.252459
0.257899 0.26334 0.26878 0.276506 0.284237 0.291969 0.2997 0.307431 0.315149 0.322879
0.33061 0.33834 0.34607 0.353781 0.361511 0.36924 0.376969 0.384698 0.392403 0.400131
0.407859 0.415587 0.423315 0.431014 0.438741 0.446468 0.454194 0.461921 0.469615 0.47734
0.485065 0.492791 0.500516 0.508204 0.515928 0.523652 0.531376 0.539099 0.546782 0.554503
0.562224 0.569946 0.577668 0 0.00125419 0.00250932 0.00376577 0.00502368 0.00628316 0.0082146
0.0101487 0.0120857 0.0140297 0.0159881 0.0169609 0.0179376 0.0189183 0.019903 0.0208919 0.0218866
0.0228918 0.0239087 0.0249374 0.025979 0.0265078 0.0270396 0.0275781 0.0281234 0.0286777 0.0292433
0.0298166 0.0304018 0.0310009 0.0316284 0.0319476 0.0322667 0.032587 0.0329083 0.0331031 0.0331316
0.0331601 0.0331885 0.033217 0.0332455 0.0334023 0.033559 0.0337157 0.0338686 0.0339569 0.0341269
0.0342937 0.0344573 0.0346173 0.0347825 0.0349273 0.0350694 0.0352087 0.0353446 0.0354652 0.0355836
0.0357015 0.0358189 0.0359347 0.0360448 0.0361642 0.0362804 0.0363935 0.036506 0.0366557 0.0367601
0.0368643 0.0369683 0.0370722 0.037168 0.0372195 0.0372709 0.0373227 0.0373746 0.0374365 0.03785
0.0382706 0.0387008 0.0391337 0.0395234 0.039986 0.0404392 0.0408891 0.0413359 0.0417855 0.0422581
0.0427049 0.0431493 0.0435972 0.0440553 0.0445401 0.0450192 0.0454933 0.0459738 0.0464617 0.0471566
0.0478583 0.0485677 0.0492879 0.0493602 0.0498406 0.0503215 0.0508029 0.0512829 0.0517653 0.0528954
0.0540174 0.055166 0.0563431 0.0575643 0.0588392 0.0600912 0.0613207 0.0625441 0.0637827 0.0649324
0.066066 0.0671911 0.0683104 0.0700008 0.0700176 0.0700344 0.0700512 0.070068 0.0700847 0.0703504
0.0706164 0.0708818 0.0711471 0.0714288 0.0717622 0.0720954 0.0724285 0.0727614 0.0730939 0.0737146
0.0743299 0.0749454 0.0755609 0.0761747 0.0774146 0.0786557 0.0799063 0.0811631 0.0824195 0.0849217
0.0874346 0.0899188 0.0923654 0.0947675 0.0987514 0.102704 0.106566 0.110336 0.118064 0.118724
0.119385 0.120045 0.120705 0.12138 0.129178 0.136905 0.144476 0.151897 0.15917 0.166924
0.174698 0.18247 0.190241 0.198011 0.20575 0.213517 0.221284 0.22905 0.236816 0.244543
0.252306 0.260069 0.267833 0.275596 0.283314 0.291076 0.298837 0.306598 0.314359 0.322071
0.32983 0.33759 0.345349 0.353108 0.360813 0.368571 0.376328 0.384086 0.391843 0.399542
0.407298 0.415053 0.422809 0.430564 0.438258 0.446011 0.453765 0.461518 0.469272 0.47696
0.484711 0.492462 0.500214 0.507965 0.515648 0.523397 0.531146 0.538895 0.546644 0.554322
0.562067 0.569813 0.577558 0.585304 0 0.00125911 0.00251891 0.00377939 0.00504131 0.00630489
0.00823386 0.0101658 0.0121007 0.0140431 0.0159996 0.0169728 0.01795 0.0189314 0.019917 0.0209069
0.0219017 0.0229072 0.0239243 0.0249534 0.0259954 0.0265246 0.0270567 0.0275947 0.0281394 0.0286935
0.0292569 0.0298279 0.0304085 0.0310018 0.0316257 0.0319425 0.0322599 0.0325776 0.0328955 0.0332256
0.0334617 0.0336967 0.0339298 0.0341569 0.034253 0.0343591 0.034464 0.0345678 0.0346705 0.0347759
0.0349736 0.0351646 0.0353493 0.0355283 0.0356888 0.035769 0.035849 0.0359287 0.0360076 0.0360844
0.0362165 0.036345 0.036474 0.0366033 0.0367848 0.0368013 0.0368178 0.0368343 0.0368507 0.0368682
0.0369437 0.0370192 0.0370946 0.03717 0.0372417 0.0377001 0.0381702 0.0386549 0.0391477 0.0395697
0.0400319 0.0404863 0.0409416 0.0413992 0.0418616 0.0423388 0.0428074 0.0432784 0.043752 0.0442278
0.0447217 0.0452074 0.0456964 0.0461912 0.046694 0.0477325 0.0487922 0.0498652 0.0509515 0.0520733
0.0520826 0.0520919 0.0521012 0.0521105 0.0521198 0.0532418 0.0543888 0.0555616 0.0567605 0.0579769
0.0592359 0.0604831 0.0617363 0.0630078 0.0642685 0.0649001 0.0655236 0.0661474 0.0667748 0.0674047
0.0676541 0.067903 0.0681523 0.0684021 0.0686819 0.0690603 0.0694392 0.0698177 0.070195 0.0705713
0.071847 0.0731166 0.0743847 0.0756486 0.0769038 0.0775323 0.0781532 0.0787761 0.0794011 0.0800879
0.0807231 0.0813589 0.0819952 0.0826317 0.0832657 0.0857909 0.0883004 0.0907984 0.0932486 0.0956697
0.100497 0.105219 0.109826 0.114322 0.118693 0.125069 0.131378 0.137586 0.143697 0.159979
0.160975 0.161971 0.162966 0.163962 0.164964 0.171717 0.178469 0.18522 0.191969 0.198717
0.206453 0.214196 0.221939 0.22968 0.237421 0.245146 0.252885 0.260625 0.268364 0.276103
0.28382 0.291558 0.299295 0.307033 0.314771 0.322481 0.330217 0.337954 0.34569 0.353427
0.36113 0.368865 0.376601 0.384336 0.392071 0.399768 0.407502 0.415236 0.42297 0.430703
0.438395 0.446127 0.45386 0.461592 0.469324 0.477011 0.484741 0.492472 0.500202 0.507933
0.515615 0.523344 0.531073 0.538801 0.54653 0.554206 0.561932 0.569658 0.577384 0.585111
0 0.00128007 0.0025608 0.0038428 0.0051263 0.00641132 0.00831812 0.0102275 0.0121396 0.0140583
0.0159893 0.0169617 0.0179373 0.0189162 0.0198986 0.0208845 0.0218792 0.0228831 0.0238968 0.0249207
0.0259567 0.0264599 0.0269653 0.027475 0.0279893 0.0280902 0.0281949 0.0282995 0.0284043 0.0285091
0.028614 0.0291583 0.029707 0.0302631 0.0308281 0.031414 0.0314387 0.0314634 0.031488 0.0315127
0.0315361 0.0315821 0.0316282 0.0316742 0.0317202 0.0317624 0.0319844 0.0322063 0.0324281 0.0326498
0.0328749 0.0329812 0.0330873 0.0331933 0.0332989 0.0333862 0.0335737 0.0337605 0.0339459 0.0341287
0.0343163 0.0343706 0.0344245 0.0344782 0.0345315 0.0345794 0.0346135 0.0346475 0.0346814 0.0347151
0.0347472 0.0349425 0.035134 0.0353219 0.0355017 0.035671 0.0357135 0.0357558 0.0357979 0.0358398
0.0358837 0.0359549 0.0360256 0.0360956 0.0361665 0.0362652 0.0363733 0.0364805 0.036587 0.0366926
0.0367947 0.0369425 0.0370886 0.0372338 0.0373793 0.0376355 0.037679 0.0377227 0.0377666 0.0378106
0.0378544 0.0380686 0.0382822 0.0384964 0.0387095 0.0389221 0.0391427 0.0393586 0.0395715 0.039785
0.0400005 0.0402186 0.0404347 0.0406499 0.0408656 0.0410839 0.0413071 0.0415265 0.0417445 0.0419628
0.0421822 0.0424035 0.0426226 0.0428409 0.0430597 0.0432805 0.0437314 0.0441816 0.0446353 0.0450927
0.0455543 0.0460234 0.0464872 0.0469536 0.0474231 0.047904 0.0483847 0.0488609 0.0493392 0.0498253
0.0503623 0.050365 0.0503677 0.0503704 0.0503731 0.0503758 0.0514164 0.0524649 0.0535297 0.0546471
0.0557965 0.0561 0.0564039 0.0567086 0.0570145 0.0573354 0.0582297 0.0591225 0.0600169 0.060918
0.0618308 0.0630892 0.0643094 0.0655021 0.0667119 0.0679555 0.0692352 0.0704808 0.0717063 0.0729164
0.0741204 0.0750166 0.0759054 0.0767964 0.0776898 0.0787052 0.0790056 0.0793055 0.0796048 0.0799037
0.080202 0.0826403 0.0850722 0.0874992 0.0899083 0.0922668 0.0968717 0.101528 0.10607 0.110384
0.114593 0.122893 0.131149 0.139337 0.147367 0.155229 0.162968 0.170709 0.178446 0.18618
0.193911 0.201636 0.209362 0.217087 0.22481 0.232531 0.240247 0.247965 0.255681 0.263396
0.271109 0.27882 0.286531 0.294241 0.30195 0.309657 0.316756 0.323855 0.330953 0.33805
0.345153 0.345758 0.346363 0.346968 0.347573 0.348179 0.35588 0.363581 0.371283 0.378984
0.386686 0.394381 0.402082 0.409783 0.417484 0.425184 0.432874 0.440574 0.448274 0.455975
0.463674 0.471359 0.479058 0.486758 0.494457 0.502156 0.509836 0.517534 0.525232 0.53293
0.540628 0.548303 0.555999 0.563696 0.571393 0.579089 0 0.00127772 0.00255616 0.00383575
0.00511664 0.00639886 0.00830092 0.010205 0.0121119 0.0140238 0.015944 0.0169086 0.0178752 0.0188438
0.0198146 0.0207878 0.0217622 0.0227419 0.0237269 0.0247166 0.0257101 0.0267021 0.0277006 0.0287082
0.0297118 0.0307239 0.0308107 0.0308975 0.0309843 0.0310708 0.0311499 0.0320644 0.0329608 0.0338379
0.0346948 0.0355527 0.0360049 0.036455 0.0369034 0.0373506 0.0377921 0.0381619 0.03853 0.0388975
0.0392647 0.0399895 0.0404264 0.0408633 0.0413003 0.0417374 0.042174 0.0426124 0.0430499 0.0434883
0.0439276 0.044368 0.0452496 0.0461383 0.0470359 0.0479406 0.0488615 0.0498137 0.0507527 0.0516788
0.0526095 0.0535553 0.0549108 0.0562878 0.0576711 0.0590683 0.0620239 0.0623079 0.0625918 0.0628756
0.0631595 0.0634432 0.0654718 0.0674765 0.0694707 0.071477 0.0734912 0.0754786 0.0775055 0.0795383
0.0815768 0.083617 0.0876771 0.0917709 0.0958264 0.0997999 0.103767 0.109476 0.115208 0.120911
0.126577 0.134518 0.136284 0.138045 0.139801 0.141554 0.143302 0.151014 0.158727 0.166437
0.174145 0.18185 0.189546 0.197248 0.204948 0.212647 0.220344 0.228033 0.235728 0.243421
0.251113 0.258805 0.266489 0.274178 0.281866 0.289554 0.29724 0.304921 0.312606 0.320289
0.327972 0.335654 0.343331 0.351012 0.358691 0.36637 0.374048 0.381722 0.389398 0.397074
0.404749 0.412423 0.420094 0.427766 0.435438 0.44311 0.45078 0.458448 0.466117 0.473785
0.481453 0.48912 0.496785 0.504451 0.512116 0.51978 0.527444 0.535105 0.542767 0.550429
0.558091 0.565752 0 0.00127432 0.00254927 0.00382469 0.00510136 0.0063793 0.00827571 0.0101743
0.0120752 0.0139793 0.0158875 0.0177977 0.0197133 0.0216342 0.0235601 0.0254943 0.0264664 0.0274357
0.0284001 0.0293595 0.029985 0.0310037 0.032015 0.0330163 0.0340079 0.034989 0.0359014 0.036811
0.0377165 0.0386191 0.0395121 0.0404062 0.0412985 0.0421895 0.0430793 0.0439665 0.0457459 0.0475414
0.0493501 0.0511686 0.053005 0.0545634 0.0561264 0.0576968 0.0592731 0.0622826 0.0622889 0.0622952
0.0623015 0.0623078 0.0623141 0.0641871 0.0660632 0.0679423 0.0698243 0.0717086 0.0736085 0.0755021
0.077397 0.079294 0.0811926 0.0850044 0.0888176 0.0926374 0.0964637 0.100299 0.108022 0.115748
0.123414 0.131044 0.138684 0.146334 0.153982 0.16163 0.169276 0.17692 0.184567 0.192212
0.199856 0.207497 0.215138 0.22278 0.23042 0.238059 0.245697 0.253334 0.260973 0.26861
0.276246 0.283881 0.291515 0.299152 0.306786 0.314419 0.322052 0.329684 0.337318 0.344949
0.35258 0.360211 0.36784 0.375471 0.383101 0.390729 0.398357 0.405985 0.413614 0.421241
0.428867 0.436493 0.444118 0.451745 0.45937 0.466994 0.474618 0.482241 0.489866 0.497489
0.505111 0.512733 0.520354 0.527976 0.535596 0.543217 0.550836 0.558456 0 0.00127166
0.00254371 0.00381631 0.00508951 0.00636334 0.0101437 0.0139358 0.0177278 0.0215172 0.0253116 0.0257793