# vtk DataFile Version 2.0
sampleSurface
ASCII
DATASET POLYDATA
POINTS 2021 float
-0.500032 0 0.11501 -0.499951 3.38813e-21 0.0392727 -0.789037 8.47033e-21 0.120673 -0.500013 -1.35525e-20
0.193965 1.00003 0 0.0485099 1.00003 0 0.0478584 0.475202 0 0.0353615
0.250044 1.41878e-20 0.0305359 0.2506 -5.42101e-20 0.117067 0.251301 0 0.203885 0.364989
0 0.203772 1.75002 0 0.113255 1.75002 0 0.0564279 2.50001 6.89146e-18
0.059229 2.21354 0 0.250758 2.50001 0 0.252875 3.25001 -3.47927e-17 0.0598775
3.25001 -1.69407e-21 0.253888 4.00001 5.60566e-18 0.0599857 4 0 0.253986 4.75
-1.79088e-17 0.0599988 4.75 8.47033e-22 0.253998 5.5 -2.79246e-17 0.0599999 5.5 -4.23516e-22
0.253999 6.25 1.01187e-17 0.06 6.25 0 0.254 7 2.93732e-17 0.06
7 0 0.254 7.75 -2.65294e-17 0.06 7.75 0 0.254 8.5
1.8923e-17 0.06 8.5 0 0.254 9.25 -2.88552e-17 0.06 9.25 -5.29396e-23
0.254 10 -2.64698e-23 0.254 10 0 0.06 -4.24997 0 0.0599042
-5 0 0.0599861 -5 0 0.253986 -4.24997 0 0.253912 -3.49995
0 0.0593815 -3.49994 0 0.253441 -2.74993 0 0.0570188 -2.74991 0
0.251316 -1.99991 0 0.0492276 -1.99987 0 0.242776 -1.24992 -1.69407e-21 0.03
-1.24985 1.23328e-17 0.222327 -1.24989 3.38813e-21 0.125756 -0.874924 2.08116e-17 0.03 -0.874929
0 0.122356 -0.124951 -8.47033e-22 0.03 -0.499941 0 0.03 -0.124922 -8.47033e-22
0.0385291 1.00021 0 0.231242 0.625368 0 0.203537 0.25004 -2.11758e-22 0.03
1.75003 0 0.247334 1.92873 1.69407e-21 0.441438 2.50001 0 0.447397 3.25
-1.69407e-21 0.447898 4 0 0.447986 4.75 0 0.447997 5.5 -4.23516e-22
0.447999 6.25 4.23516e-22 0.447999 7 0 0.448 7.75 -1.05879e-22 0.448
8.5 0 0.448 9.25 0 0.448 10 -2.64698e-23 0.448 -5
-8.47033e-22 0.447985 -4.24997 0 0.447919 -3.49993 0 0.4475 -2.74988 0
0.445609 -1.9998 6.77626e-21 0.437758 -1.24969 1.61411e-17 0.417681 -1.24976 -6.77626e-21 0.31973
-0.875161 7.70461e-18 0.216228 -0.875403 0 0.312476 -0.499924 -8.74138e-19 0.250039 -0.312433
0 0.250037 -0.312436 0 0.200025 -0.499924 0 0.200026 0.250062 3.38813e-21
0.24921 0.250039 -1.69407e-21 0.250046 0.250032 0 0.300069 0.437526 3.05948e-18 0.300066
0.625026 0 0.30005 1.00072 -8.23994e-18 0.326497 1.00196 0 0.423 1.75013
0 0.439575 1.75013 1.77877e-20 0.448245 1.00135 0 0.537141 1.00002 0
0.61834 1.74999 2.71051e-20 0.633055 2.49999 -3.38813e-21 0.641448 3.25 0 0.641907
4 -1.69407e-21 0.641985 4.75 -8.47033e-22 0.641996 5.5 -4.23516e-22 0.641998 6.25
0 0.641999 7 0 0.641999 7.75 0 0.642 8.5 5.29396e-23
0.642 9.25 -5.29396e-23 0.642 10 0 0.642 -5 0 0.641985
-4.24997 -1.69407e-21 0.641926 -3.49993 0 0.641557 -2.74988 0 0.639897 -1.99989
6.77626e-21 0.63382 -1.25099 2.55465e-18 0.614606 -1.25 -2.71051e-20 0.515981 -0.878244 0
0.50789 -0.875961 2.71051e-20 0.459694 -0.875609 0 0.410432 -0.498432 0 0.400603
-0.498071 -1.70762e-18 0.413126 -0.450805 0 0.413349 -0.45095 0 0.400955 0.250009
1.89735e-19 0.412703 0.25 2.71051e-20 0.425212 0.296872 1.00289e-18 0.425187 0.343754 -2.71051e-20
0.425153 0.343763 0 0.400146 0.250006 0 0.400175 1.00162 1.41488e-17 0.520353
-2 4.23516e-22 0.820145 -2.09502 -2.11758e-22 0.830091 -2 0 0.829497 -1.25123
0 0.813251 -1.25126 0 0.713737 -1.25101 6.77626e-21 0.62198 1.00059 0
0.714169 1.00094 0 0.809205 1.75018 0 0.82775 2.5 0 0.835521
3.25 0 0.835917 4 -1.69407e-21 0.835986 4.75 -8.47033e-22 0.835996 5.5
0 0.835998 6.25 0 0.835999 7 0 0.835999 7.75 0
0.836 8.5 0 0.836 9.25 0 0.836 10 0 0.836
-5 -8.47033e-22 0.835986 -4.24997 0 0.835935 -3.49995 0 0.835616 -2.74991
0 0.83419 -0.970118 0 0.703382 -0.87455 0 0.699864 -0.874264 -2.71051e-20
0.649852 -0.874033 -2.71051e-20 0.599873 -0.49698 0 0.599585 -0.497345 -9.21572e-19 0.612046
-0.450014 0 0.611892 -0.44938 2.71051e-20 0.599454 -2.00002 0 0.84097 -1.84639
-3.38813e-21 1.02215 -1.25185 0 1.01276 -0.896512 -3.38813e-21 0.900668 -0.908183 6.77626e-21
0.801076 -0.904022 -1.86347e-20 1.00093 0.624925 0 0.799916 0.249931 0 0.799891
0.249978 0 0.899916 0.249997 0 0.999939 0.999987 0 0.999957 1.75061
-2.1684e-19 1.02409 2.50003 0 1.0296 3.25 -1.69407e-21 1.02993 4 0
1.02999 4.75 0 1.03 5.5 0 1.03 6.25 2.11758e-22 1.03
7 0 1.03 7.75 0 1.03 8.5 5.29396e-23 1.03 9.25
0 1.03 10 0 1.03 -5 0 1.02999 -4.24998 0
1.02994 -3.49996 -8.47033e-22 1.02968 -2.74996 0 1.02849 -2.00026 0 1.02458
-0.87482 0 0.799893 -0.87491 0 0.899919 -0.49993 0 0.799862 -0.499958
7.6233e-19 0.849889 -0.312476 0 0.849885 -0.312472 0 0.799853 -1.25001 8.04681e-21
1.19601 -0.499979 5.29396e-23 1.10737 -0.731886 2.11758e-22 1.19997 -0.499981 0 1.19997
-0.124987 0 0.999933 -0.477759 -5.29396e-23 0.999933 -0.487556 -1.45584e-22 1.09995 0.250008
0 1.19997 1 0 1.19997 1.7507 0 1.22203 2.50003 -1.35525e-20
1.22368 3.25 0 1.22394 4 0 1.22399 4.75 4.23516e-22 1.224
5.5 0 1.224 6.25 2.11758e-22 1.224 7 0 1.224 7.75
1.05879e-22 1.224 8.5 0 1.224 9.25 0 1.224 10 2.64698e-23
1.224 -5 4.23516e-22 1.22399 -4.24999 -4.23516e-22 1.22395 -3.49998 0 1.22374
-2.75001 0 1.22279 -2.00077 0 1.21965 -1.24997 4.23516e-22 1.19997 -0.499969
-5.29396e-23 0.999933 -0.874942 0 0.999936 -0.499979 -1.32349e-23 1.09995 -2.75001 0
1.36967 -3.18711 4.23516e-22 1.41751 -2.75001 4.23516e-22 1.4171 -2.00072 3.38813e-21 1.29692
-2.00065 0 1.41474 -1.25823 6.35275e-21 1.40014 -0.980416 0 1.39998 -0.499986
0 1.39998 0.250009 0 1.39998 1 0 1.39998 1.75054 0
1.41682 2.50002 -1.35525e-20 1.41776 3.25 0 1.41796 4 4.23516e-22 1.41799
4.75 0 1.418 5.5 0 1.418 6.25 0 1.418 7
0 1.418 7.75 0 1.418 8.5 0 1.418 9.25 0
1.418 10 0 1.418 -5 0 1.41799 -4.24999 0 1.41797
-3.49999 -4.23516e-22 1.41781 -1.24998 0 1.39998 -2.80392 1.32349e-23 1.61143 -2.75
-1.32349e-23 1.6114 -2.0003 0 1.60983 -1.25396 2.64698e-23 1.60004 -1.12789 2.64698e-23
1.59999 -0.49999 1.05879e-22 1.59999 0.250008 0 1.59999 1.00001 4.23516e-22 1.59999
1.75038 0 1.61122 2.50002 0 1.61184 3.25 -4.23516e-22 1.61197 4
-4.23516e-22 1.61199 4.75 0 1.612 5.5 0 1.612 6.25 0
1.612 7 0 1.612 7.75 5.29396e-23 1.612 8.5 2.64698e-23 1.612
9.25 -1.32349e-23 1.612 10 -1.32349e-23 1.612 -5 0 1.61199 -4.24999
0 1.61198 -3.49999 0 1.61187 -1.24999 0 1.59999 -2.75 -1.32349e-23
1.63714 -2.64195 -2.11758e-22 1.80559 -2.00012 -8.47033e-22 1.80492 -1.25741 0 1.80004
-1.19082 -7.94093e-23 1.8 -0.499992 1.05879e-22 1.79999 0.250006 2.11758e-22 1.79999 1
0 1.8 1.75023 0 1.80561 2.50001 3.38813e-21 1.80592 3.25 0
1.80599 4 0 1.806 4.75 2.11758e-22 1.806 5.5 0 1.806
6.25 0 1.806 7 0 1.806 7.75 0 1.806 8.5
2.64698e-23 1.806 9.25 0 1.806 10 0 1.806 -5 0
1.806 -4.25 -2.11758e-22 1.80599 -3.49999 0 1.80594 -2.75 -1.05879e-22 1.8057
-1.24999 0 1.8 -2 -4.76456e-22 1.98532 -1.20969 -1.65436e-23 2 -0.499993
0 2 0.250006 0 2 1 0 2 1.75 0
2 2.5 0 2 3.25 0 2 4 0 2
4.75 -1.05879e-22 2 5.5 0 2 6.25 0 2 7
5.29396e-23 2 7.75 0 2 8.5 0 2 9.25 0
2 10 -1.32349e-23 2 -5 2.21817e-18 2 -4.25 1.05879e-22 2
-3.49999 0 2 -2.74999 0 2 -1.99999 -5.29396e-23 2 -1.24999
3.30872e-24 2 0.0956945 -5.42101e-20 0.203879 0.0632748 0 0.203876 0.0625511 0
0.250042 -0.403589 6.77626e-21 0.40138 -0.405779 7.7927e-19 0.38799 -0.406379 -6.77626e-21 0.375196
-0.499567 -1.35525e-20 0.375265 0.250006 -6.50521e-19 0.375144 0.156247 0 0.375155 0.156237
9.41901e-19 0.400212 0.203129 0 0.400201 0.249796 0 0.59991 0.249852 -1.0842e-19
0.587433 0.202953 0 0.587417 0.202888 6.50521e-19 0.599901 0.625121 -6.77626e-21 0.499953
0.717439 6.77626e-21 0.504955 0.625095 6.77626e-21 0.475379 0.343596 1.0842e-19 0.599918 0.343639
0 0.574939 0.296781 0 0.574964 0.249926 0 0.574977 0.62499 -4.2826e-18
0.549927 0.624917 4.55365e-18 0.599925 0.203133 0 0.412725 -0.449046 0 0.587135
-0.496581 5.42101e-20 0.587161 0.625036 -9.32414e-18 0.40006 0.625067 1.13164e-18 0.450032 0.249704
0 0.624881 0.155871 0 0.599866 0.155839 1.95156e-18 0.624853 0.249886 1.35525e-20
0.749873 0.062411 0 0.749846 0.0624478 -4.26227e-18 0.799869 -0.312472 0 0.749804
-0.499901 -3.38813e-21 0.749824 -0.691227 0 0.30453 -0.499912 3.02221e-18 0.300065 -0.875784
-3.11708e-18 0.361353 -0.592465 -2.71051e-20 0.40036 -0.499854 0 0.350135 -0.687111 1.35525e-20
0.350117 -0.68656 -2.71051e-20 0.40021 0.437526 -1.35525e-20 0.400108 0.437522 6.77626e-21 0.350086
0.250015 -2.51399e-18 0.35011 0.625027 3.38813e-21 0.350064 -0.592287 0 0.425286 -0.498048
0 0.425444 -0.873902 5.42101e-18 0.54992 -0.496663 0 0.574746 -0.591532 0
0.574798 -0.591729 0 0.599734 -0.149108 0 0.406489 -0.149477 -5.29396e-23 0.403592
-0.149678 0 0.406489 -0.451876 -2.1684e-18 0.499977 -0.451579 0 0.487563 -0.498366
0 0.487552 -0.498515 -1.0842e-19 0.499993 0.437553 0 0.450075 0.437532 -6.07153e-18
0.425113 0.254621 -1.25361e-19 0.496697 0.26485 -5.42101e-20 0.498023 0.264831 0 0.496529
0.254636 -2.30393e-19 0.49668 0.570241 0 0.499932 0.437665 -2.71051e-20 0.474991 0.437859
-2.71051e-20 0.49988 0.437372 -1.0842e-19 0.599915 0.249722 3.25261e-19 0.649874 0.43732 -5.42101e-20
0.649899 0.624872 0 0.649914 0.624883 -3.95734e-18 0.699913 0.43734 6.83047e-18 0.699894
0.249817 0 0.699869 -0.592227 0 0.624743 -0.498071 -2.71051e-20 0.624658 -0.499769
6.77626e-21 0.69979 -0.687025 0 0.699824 -0.150854 -1.03677e-18 0.599678 -0.151059 -6.77626e-21
0.605522 -0.127339 6.77626e-21 0.605681 -0.127867 0 0.599582 -0.406139 -4.40457e-20 0.699754
-0.406113 0 0.674749 -0.499634 0 0.674774 -0.18433 -4.23516e-22 0.674527 -0.163626
-4.23516e-22 0.678958 -0.165125 0 0.674537 -0.171868 4.23516e-22 0.674524 -0.14924 3.34737e-19
0.400169 -0.125737 0 0.400165 -0.12551 0 0.393854 -0.149076 -2.11758e-22 0.393877
-0.499925 -2.61564e-18 0.325088 -0.406241 0 0.325087 -0.4062 0 0.300069 -0.124901
0 0.300062 -0.218633 -3.27294e-18 0.299673 -0.218596 1.35525e-20 0.324664 -0.124851 0
0.325085 -0.126061 7.86047e-19 0.406473 -0.0785222 1.30782e-18 0.400166 -0.126118 3.38813e-21 0.41275
-0.0785648 0 0.412729 0.240678 1.0842e-18 0.500153 0.252614 -2.1684e-19 0.498317 0.252386
1.0842e-19 0.496231 0.241035 0 0.496114 0.228892 -1.35525e-20 0.496204 0.228835 6.77626e-21
0.498715 0.229819 2.71051e-20 0.500074 0.25248 0 0.499935 0.240657 -1.6263e-19 0.500957
0.264863 0 0.500154 0.264689 0 0.500951 0.437443 0 0.549896 0.437406
[...]
POINT_DATA 2021
FIELD attributes 2
p 1 2021 float
2.00701 1.43638 2.36923 4.35829 0.0556223 0.0535131 -4.203 -6.03933 -7.68548 -6.15956 -4.31855
0.494953 0.463043 0.112076 0.325774 0.174688 0.00351103 0.0270383 0.00512758 0.0141163 0.00901568
0.0153623 0.00411013 0.00974184 -0.000615115 0.00427694 -0.00216326 0.00203811 -0.00174972 0.00182539 -0.00104852
0.00179262 0.000191672 0.00309292 0 0 0.615144 0.610696 0.610543 0.614857 0.636006
0.635108 0.705936 0.702805 0.927831 0.924556 1.64133 1.7631 1.77831 2.236 2.4767
-4.05409 1.36646 -4.10688 0.646279 -0.115784 -6.02913 0.570214 0.439135 0.188013 0.0277699
0.00607038 0.00873566 0.00522308 0.000823053 -0.000764269 -0.000452998 -0.000714909 0.00240157 0 0.610108
0.614085 0.63269 0.693769 0.903486 1.95702 2.0298 3.12738 3.87166 7.31635 -3.31254
-1.0557 4.57808 -5.72146 -5.71355 -2.26334 0.330323 0.819936 1.02541 0.920812 0.517635
0.513461 0.832842 0.867172 0.424355 0.16567 0.0215298 0.000999252 0.00567162 0.00382228 4.72709e-05
-0.00127205 -0.000755752 -0.000703566 0.00251469 0 0.609415 0.612892 0.62905 0.681078 0.863072
1.85091 2.13664 5.13382 5.58755 4.82513 32.5619 36.4469 52.0092 45.9654 4.76082
4.89551 3.38058 3.4317 2.69106 4.08463 0.825746 0.809033 0.788566 0.80632 1.39732
1.78625 1.84613 0.987527 0.479257 0.34833 0.127511 0.0134164 0.000265261 0.0067848 0.00595077
0.00229946 0.000815496 0.00108061 0.00165212 0.00322151 0 0.608536 0.611407 0.624614 0.666194
3.25215 3.75047 4.68194 4.76009 34.3464 32.6825 44.6009 50.7428 0.802488 0.782175
0.940581 1.7038 2.62791 1.14317 0.0759404 -4.88027 -5.29923 -2.74721 -0.231444 0.189671
0.0734584 -0.00522633 -0.0108147 -0.00107033 0.000551639 -0.00167552 -0.00227126 -0.00136213 -0.000152251 0.000993561
0 0.607563 0.609781 0.619783 0.650206 0.741156 2.7475 1.73361 5.189 3.29376
0.56156 -0.672244 0.698839 0.313002 0.314058 0.144163 -1.70631 0.675698 0.283581 -0.973839
-0.396053 0.0964974 0.064905 -0.00264004 -0.0108585 -0.00125478 0.00105171 -0.000876734 -0.00139904 -0.000456164
0.000734739 0.00139614 0 0.606595 0.608167 0.614932 0.634075 0.677671 0.693607 0.825672
1.1601 0.326535 0.622843 0.61414 0.619217 0.65741 0.626509 0.56757 0.38496 0.060672
-0.564477 -0.379452 0.0449344 0.0593264 -0.00415044 -0.0151421 -0.00461086 -0.00114415 -0.00253523 -0.00277897
-0.00165642 -0.000361481 0.000334875 0 0.605729 0.606708 0.610506 0.566916 0.607441 0.607478
0.591417 0.496359 0.427843 0.0781123 -0.435543 -0.35025 -0.00196691 0.0480602 -0.00773409 -0.0187791
-0.00666273 -0.00208452 -0.00306065 -0.0031199 -0.00191314 -0.000579017 0.000159275 0 0.605048 0.605533
0.60696 0.495852 0.606498 0.595907 0.571089 0.458666 0.428332 0.0872966 -0.365254 -0.334028
-0.028362 0.0429154 -0.00816632 -0.0198759 -0.00741853 -0.00249004 -0.00335962 -0.00335643 -0.0021162 -0.000770085
6.71397e-06 0 0.604607 0.60475 0.604615 0.600085 0.457543 0.564815 0.426169 0.0903444
-0.342848 -0.328777 -0.0366543 0.0413517 -0.00827743 -0.0203035 -0.00778375 -0.00271839 -0.00351274 -0.00344804
-0.00217034 -0.000808108 -9.42278e-06 4.94282e-05 0.604452 0.604466 0.603771 0.597564 0.564304 0.44524
-10.2752 -11.1321 -11.7793 70.452 60.0287 43.8429 29.6574 2.91387 1.68496 4.38544
5.0555 4.11269 4.50319 6.1076 5.3612 2.02131 1.72802 2.13893 2.92937 3.61298
3.27437 3.87287 2.24061 1.90588 6.04669 56.2321 39.4322 1.93212 2.25991 3.65832
4.68504 2.17652 -4.52418 -11.1991 -9.83992 -3.19609 8.46231 7.00069 11.8962 4.7483
17.4577 20.8067 9.13321 10.5134 2.58574 1.49166 0.9856 1.6494 19.7244 36.9043
5.61185 39.6338 20.3265 18.8178 -58.8022 -58.5789 -58.7982 68.447 68.3595 47.5499
44.7854 3.41141 3.11987 -5.3181 0.142709 -0.00309182 -5.3688 2.5842 3.97631 3.93821
2.8471 1.84909 1.75717 1.62616 0.947348 0.758191 -1.35199 17.0048 28.0943 13.29
7.27737 -56.5602 -56.338 -58.7307 -58.6923 13.8688 19.1006 18.4738 -46.2571 -42.7042
-44.3822 -45.1174 -58.3198 -57.6427 -57.6018 -57.7172 16.6013 15.8612 11.9865 -29.3245
-27.9678 -45.3471 -36.9971 -58.9645 -46.098 -58.8147 -48.2776 11.0655 4.20211 10.566
11.9475 9.136 9.40893 9.69773 4.41833 11.189 0.702373 0.520919 3.69406 3.44539
4.05797 4.30555 47.7431 68.3295 -58.827 -56.4949 6.44449 11.1928 -51.5157 -52.8822
-58.4688 4.35804 6.22285 6.38482 6.42662 -31.4078 -40.0107 -49.4072 -29.7941 64.3922
60.7766 41.6454 41.3951 -44.0877 -56.1079 -11.5052 -8.55268 -0.448079 -24.4748 -42.3592
42.9732 44.2984 64.2914 66.4631 -51.7509 -49.9245 -50.753 0.349043 -9.63688 -12.6854
-11.6774 -21.663 -24.8436 -57.7766 44.0295 21.8473 22.1416 11.6989 12.015 12.1897
13.14 22.0192 44.4946 10.7962 12.4586 11.8988 13.2381 -58.859 -58.8508 -58.3433
-58.3306 -57.6285 -57.0367 -56.7018 45.808 66.8148 -58.5242 -58.7885 -59.1727 -58.434
-29.8194 -35.1167 -32.8376 -13.7054 -1.56734 -4.9108 -50.7965 -50.4741 -58.2248 -13.0817
0.195461 0.1058 -13.3236 -58.4821 -57.0093 -51.4751 -12.4186 -10.1368 -3.62391 1.62443
-7.38691 -5.68785 -18.6891 -38.4524 -41.6027 -36.4221 -52.2069 -53.2559 -53.0281 -4.13732
-17.5128 -18.3341 -4.82798 -56.131 -51.9197 -56.1296 -3.52766 -9.23724 -16.5148 -11.5651
67.5158 46.8575 -54.4232 -54.5632 -56.9427 -56.8263 -56.3748 -53.9313 -57.2114 -53.2347
-56.1333 -59.0627 -59.17 -59.2188 -32.2312 -77.1377 -96.1874 -101.237 -103.877 -103.462
-49.0973 -50.0688 -54.1253 -48.1411 -50.0406 -98.2874 -99.5324 -71.3224 -34.4011 -58.6145
-59.3781 -59.0251 -56.4532 -57.3141 -57.4213 -57.3486 -57.7365 7.17136 6.11099 8.99405
-56.2188 -55.9369 -56.1335 -55.6518 -55.754 -56.0372 -56.4566 -55.3404 -55.3252 1.89144
1.67037 0.527408 1.04837 4.17662 4.54462 1.34249 -56.0377 -56.4558 -57.1227 5.72022
6.55454 2.68823 0.76978 3.0567 -32.115 -38.1467 -37.4779 -31.8003 -54.6564 -55.121
-57.9996 -57.7234 -55.1813 -55.9864 -38.9598 -43.3325 -43.0777 -36.9108 -46.0349 -50.0598
-53.3578 -53.5085 -52.2627 123.545 131.403 146.754 146.842 -58.3363 -56.2507 -56.5722
-58.0007 -57.8565 4.47097 2.20206 3.04855 4.63015 -9.73708 -3.91902 -5.93019 -8.95506
-11.8572 -39.1387 -36.8418 -25.5169 -27.3438 -32.1519 -39.1637 -24.9679 -24.9188 31.0539
41.2117 52.0668 37.9071 23.0628 18.9789 34.1371 26.0598 0.672745 0.830919 1.98899
34.0377 24.8753 17.0423 22.1154 2.74938 3.69455 4.32755 4.43835 3.62457 6.55687
6.66942 4.54312 -9.37452 -8.25799 -1.37472 -10.238 14.687 9.14683 10.8214 -54.6038
-56.792 -56.9223 -54.8003 -82.5105 -81.2373 -84.4601 -47.9098 -12.7206 -18.3413 -27.6639
-56.0225 -52.8063 -55.3108 -56.4384 -74.0171 -73.7406 -58.4519 -59.6432 -49.7452 -48.1205
-50.3093 -50.534 3.62334 3.68481 -0.806114 5.98191 5.62458 4.60167 5.28567 5.73344
6.13049 -54.0289 -53.6077 -68.6891 -67.9118 78.978 94.0646 85.6608 112.08 106.388
88.8156 90.1316 161.835 164.166 153.34 121.604 98.3862 104.327 97.2819 117.616
-12.8595 -26.8823 -31.2118 -5.84606 -26.0677 -52.0381 -41.6992 -6.31364 93.6748 101.179
86.7668 78.2335 96.6726 88.3643 107.568 148.433 158.191 167.384 165.12 106.602
102.877 159.606 -32.5628 -7.9668 -38.3032 -28.46 -47.6292 140.186 140.055 115.578
110.56 110.221 115.484 139.579 138.963 108.111 167.216 170.823 171.99 172.283
173.691 186.632 186.821 174.798 173.25 -33.0747 -40.2294 -33.018 -56.614 -51.0011
-42.7691 -42.0261 -40.7445 -25.5985 2.82617 -2.52448 -0.611839 173.37 175.314 187.172
172.341 186.488 187.132 175.201 172.147 179.577 181.741 170.087 168.855 179.878
167.855 171.072 182.399 -52.6921 -37.8593 -36.5219 -55.8591 -55.8177 -55.9805 -36.2676
-46.1283 -36.3788 -36.8983 -45.7711 -45.7327 -3.3619 -9.2187 -25.0341 -25.0731 -32.99
-43.6675 -32.9465 -32.6241 -43.07 -21.1612 -18.9162 -20.6053 115.396 140.115 138.099
139.01 114.653 109.281 170.012 169.885 170.454 167.717 136.37 108.37 113.548
137.122 -57.2574 -54.3477 -53.0788 -52.9256 -55.8791 -46.1295 90.1056 93.3739 78.6319
-15.6237 -6.85695 -7.07248 -21.2164 54.3458 56.2246 69.9217 73.5815 -55.8547 -55.0964
-55.3989 -55.8486 -57.0679 -57.318 -57.4585 -57.5692 -56.3811 -56.4932 -56.1189 -56.2308
-136.051 -109.906 -78.5893 -95.737 -98.114 -99.0904 -99.0831 -83.0945 -78.9556 -92.5698
-70.7109 -85.5508 -133.368 -137.026 -128.919 -96.2636 -97.0412 -55.0068 -54.4591 -55.1811
-56.2687 -56.5611 -54.0894 -54.0088 6.80797 7.29491 13.7357 16.3889 13.8152 -51.1661
-50.4948 -46.0047 -46.1762 -46.5686 -46.3778 -46.3515 -46.1261 13.0965 12.8044 17.1095
8.15945 7.97724 9.53337 10.0157 10.0445 8.43838 7.24585 8.00475 12.3755 15.7667
13.746 0.768 -0.91131 -3.09911 6.94802 6.11777 5.00207 6.37757 7.06155 -52.5061
-53.441 -56.4234 -55.6932 -48.66 -49.6989 13.628 15.6343 17.0262 -47.1937 -49.989
-50.1194 -46.9245 -46.1071 11.3829 11.1152 11.1588 9.57122 6.80331 -7.28035 -6.00538
5.44331 6.17264 6.16775 -48.5361 -48.9368 146.463 148.487 140.901 136.945 113.32
118.287 125.698 121.161 184.596 185.872 182.173 178.413 -55.9241 -55.8647 -53.1191
-53.0201 169.617 183.343 185.041 172.975 174.431 186.555 171.009 182.129 169.604
179.264 -16.8606 -19.2362 -23.9331 -28.3258 -26.8911 -23.1101 -8.76234 -3.42779 -3.80386
-8.99994 -14.0331 -13.7408 -1.03998 -9.06396 -9.93344 -15.0247 -18.1408 -8.2565 -9.00226
-24.9345 -20.2335 -9.65408 -0.777829 -3.04965 6.07364 -3.48865 6.0563 6.85204 3.23464
3.79782 4.53046 4.11361 7.72627 6.07139 3.87311 5.73274 -18.9057 -15.9962 -26.3184
-21.468 -56.4374 -58.2027 -58.8086 -58.6749 2.95409 3.02811 5.03846 5.5192 4.27902
4.8787 -14.6064 -40.3367 -57.1973 -65.3693 -53.2806 -31.959 -58.9919 10.8363 10.2824
10.3061 -2.86758 -0.12518 12.1053 17.4984 9.46585 24.0577 20.8913 10.5362 1.3874
6.79919 8.32933 13.2093 11.5851 6.66539 -53.6078 -44.0349 -49.9151 -13.1185 -43.9202
-25.0319 -60.617 -83.7255 108.681 92.7292 106.183 108.361 112.732 111.867 172.865
171.988 173.239 172.555 171.257 185.948 185.949 185.184 -58.1801 -58.4024 174.462
-56.2507 -56.248 -57.1564 -57.3248 -57.0239 -56.1435 -150.15 -136.946 -136.85 -133.613
-157.857 -136.772 -132.991 -133.307 -119.875 -115.337 -80.6144 -73.0914 -73.4512 -70.8227
-119.657 -121.477 -56.8063 -55.775 -54.686 -57.1742 9.54646 7.19927 10.7135 8.24735
11.0503 12.0662 12.4529 13.3631 14.1719 -55.4781 -54.5651 -56.5243 -55.3482 -53.3935
-53.1349 -53.2514 -55.1747 -6.21413 -0.612142 -1.58242 -4.823 9.12586 9.47732 6.70003
5.74261 7.43769 9.46069 8.68886 6.5662 1.30626 8.07479 7.0049 6.84347 8.6823
10.4165 9.21958 12.0495 11.3387 -55.015 -55.4009 -55.3579 -55.4888 -55.6468 -55.4941
-54.9721 -52.9723 -54.3312 -54.34 -54.3456 -51.2601 -52.6928 -73.7942 -72.9683 -57.7114
-60.0725 -77.4942 -68.396 -78.3556 -125.047 -129.842 -137.413 -79.4863 -97.5212 -107.791
-80.3057 -98.9258 128.734 113.568 148.499 151.725 -54.797 -54.0448 -55.1504 -55.135
-53.248 143.866 167.855 146.126 -49.2939 -48.4741 -48.9012 -49.6617 -49.4423 -49.4609
-49.3888 -47.9718 -8.18069 -9.4922 -12.0279 -11.1223 -14.9452 -17.1877 -19.358 -17.1134
-18.0643 74.767 85.4604 -59.4514 51.0208 76.4735 64.955 75.5561 61.0229 13.8611
10.9966 45.559 36.5348 8.25419 9.0894 3.50889 5.20062 5.02186 7.6928 6.61714
6.99604 7.36251 8.16375 -53.0128 -52.5332 -52.2474 -52.8368 -1.20947 -0.74144 -1.33273
2.13615 5.63319 5.06004 7.06705 6.47727 -51.1522 -51.5813 -51.3409 138.175 136.257
171.17 184.765 189.072 189.359 186.85 185.324 -55.9772 -55.692 -56.0139 -55.8419
-53.2695 -46.0229 -46.8211 -47.4217 -46.6516 -46.9724 -48.2297 -56.094 -56.1213 -56.7266
-57.4976 -57.2074 -57.1931 -57.344 -56.9755 -55.3476 -116.414 -111.866 -135.283 -111.721
-134.667 -122.678 -124.07 -134.005 -56.2061 -57.6485 -56.1006 -54.8218 13.7273 12.3669
11.3628 12.5166 12.7235 13.3487 -37.0525 -36.603 -31.8401 -31.2053 -42.0588 -42.6802
-46.9144 -46.4736 -51.5086 -51.5619 -46.0254 -52.4199 -52.0594 -6.41548 -1.0847 -11.7679
0.290867 1.76395 7.88796 7.41981 7.76036 4.04871 10.6177 7.22022 8.65901 10.1553
10.8119 10.7029 10.8358 12.6542 12.3183 2.03349 12.383 14.8201 16.0177 3.68502
3.16783 2.90547 3.61807 -59.1652 -58.275 -53.2334 -56.7478 -44.8584 -44.2809 -40.2142
-44.6098 -46.0765 -50.1783 -51.4723 -49.7869 -50.0396 -49.7678 -47.6099 -52.6794 -47.5853
3.97233 -48.42 -49.7569 140.977 131.785 129.386 129.42 129.8 114.308 106.891
188.647 188.121 187.126 -50.6479 -50.994 -1.42948 -0.87081 0.16846 -29.9654 -30.8158
186.046 186.88 180.355 183.318 181.866 181.492 -33.2823 -29.156 -3.19816 -7.9289
-6.02563 -3.2635 -25.0128 -13.8255 -10.4183 -13.5466 -20.0248 -4.57989 80.8417 56.497
60.8294 21.0615 21.4302 67.9953 110.681 10.2361 7.2195 -2.43447 -2.70073 6.83569
7.63615 7.92791 6.10843 6.56153 24.508 16.2791 -0.462 19.7175 -2.03247 3.38067
8.16597 8.08234 68.0011 110.185 -54.905 -55.8883 18.0861 91.5555 108.998 100.315
92.3651 107.993 109.099 126.531 134.274 143.155 -56.0534 81.594 73.5792 50.3898
12.2803 18.2055 16.3955 -76.2513 -56.8891 -56.8824 -56.8856 -55.2531 -55.187 -59.9044
-55.412 -59.8154 -60.438 23.7343 -6.72998 5.90061 10.5882 10.8587 -1.75247 -1.86017
-3.00961 -55.7797 -54.3399 -1.19558 2.39587 2.70674 -57.7129 -57.1689 -56.2755 7.90753
7.62052 3.93147 -56.8314 41.4906 49.6538 -66.6756 -59.0929 17.4921 15.0785 8.88816
6.78262 4.95016 8.40917 6.83244 -54.3404 -54.2852 -53.153 -53.1102 -55.794 -52.3357
-51.8895 -54.4698 -54.7431 -54.7435 -54.259 -55.2971 -54.8925 -54.7429 -54.5175 4.37571
-51.8792 -57.8852 -56.851 100.491 129.132 144.696 155.16 168.082 162.91 160.721
148.72 188.233 -52.9201 -53.9546 -51.8836 -7.32829 -10.3662 -3.20807 -49.9705 -49.9976
-49.9373 -50.1894 -53.4039 -47.6074 -49.0785 -47.8764 -47.4224 -48.1068 28.0358 19.4569
-113.047 -120.8 -120.705 -121.358 -121.707 -73.9149 -96.5761 -73.9182 13.374 17.0532
-11.2742 12.108 11.5285 -5.63245 -7.25116 4.06124 2.39528 0.898551 0.472317 -0.855986
-2.44554 -1.1465 4.06007 4.35943 0.320552 2.68067 4.34476 2.27126 1.14084 13.2751
17.6619 -50.3382 5.4292 12.7411 8.40446 16.5398 8.2629 11.0785 14.1729 15.9859
4.64836 4.80474 6.39127 5.80165 -2.445 -4.4227 -6.74374 -6.64146 4.72092 1.35844
4.16111 9.45393 15.5199 16.7599 8.23009 5.50542 2.7798 2.46013 7.05996 10.6588
11.3392 12.0119 11.1277 5.54602 -3.96013 5.41711 -3.17011 2.92258 -3.96958 2.17347
11.0977 8.37621 12.4999 6.91847 9.52335 11.4851 10.8503 10.5427 7.92728 8.66478
9.19634 9.44852 7.87135 7.33485 7.36385 5.93177 -5.94841 -9.56944 -7.71282 6.401
5.80244 7.97568 6.15929 -9.74936 -11.5419 0.860045 6.99911 5.75831 -2.00005 5.51639
-137.184 -138.001 -138.341 10.3233 -55.8123 -54.8597 -54.9275 5.14088 9.8925 5.18906
8.3104 11.0142 -55.9803 -55.9177 -55.3901 -55.14 -61.0226 -60.5822 -61.0914 -68.9794
-116.641 -120.846 -114.252 -121.547 -49.2292 -49.7464 -47.7974 -47.5043 -47.7525 -47.4825
-14.8002 -14.7995 -17.2397 -52.7756 -52.5911 -52.3546 5.04277 1.33496 4.89332 4.85675
-52.1487 -52.5517 -52.6897 141.73 151.087 -55.4962 -50.6364 13.3282 13.9455 11.6013
7.0703 11.4112 18.8466 4.19595 3.31353 4.63975 3.67897 -53.4534 -57.2682 -57.0722
-55.2826 7.72589 15.2593 11.1586 4.04044 4.20658 10.164 8.87506 9.5593 8.67085
10.4514 12.5277 10.3173 5.78598 8.59456 8.23835 -54.2977 -50.3952 -48.8469 91.1428
80.1825 84.1415 66.6656 72.6408 -4.95362 -3.04623 0.217442 -1.58077 7.55448 8.07594
7.63517 8.19772 7.95306 7.43666 6.97128 116.778 106.751 94.7062 -73.8432 -57.3516
-56.1047 -54.8769 -54.7545 -54.3335 -54.3552 163.463 139.742 161.871 161.981 7.62325
4.49012 10.6867 11.3804 7.19977 8.57504 7.39999 6.919 6.13171 2.69248 -2.5601
4.74532 5.40004 5.9884 4.33748 6.69431 14.6161 9.08509 -13.4733 15.8198 14.3301
7.54333 10.7144 16.1723 9.21335 -13.3863 -14.3219 -12.3484 -3.2209 -5.30525 -13.8246
7.22309 5.10825 -15.4306 -17.0662 6.96704 4.67208 -1.38615 -4.32258 -55.2123 -46.3263
13.1361 1.84163 0.121056 -0.272683 5.96482 5.52298 6.46701 6.0316 5.98559 5.56337
0.0805296 6.20907 6.88618 -0.667185 5.66903 4.66438 7.18211 6.65302 6.06665 106.156
86.6215 121.967 123.762 5.07341 4.7883 3.26264 -55.4411 4.99956 6.04333 5.80736
-9.79618 -12.7952 -0.31249 6.14613 6.65112 5.28406 8.05095 5.06873 6.82564 3.70903
37.1291 -53.4191 -55.2346 -54.6914 -54.7003 -54.7569 -3.01672 -4.42318 -13.2438 -13.1102
-13.133 -3.83959 9.2597 2.86297 5.80374 6.96666 2.35852 2.1446 -0.194383 -1.18694
-11.5101 -5.65686 -4.50502 -11.864 -4.55434 -12.7471 5.48553 -11.9822 -13.067 -2.81127
1.08906 6.34656 6.34349 5.77472 8.92085 0.0230542 6.64502 -3.24637 -1.22602 4.36019
-0.987328 7.20269 4.78162 -10.1064 9.00861 -0.769696 6.14305 0.97067 1.36699 4.8091
5.16346 4.24627 4.97564 2.8618 7.63287 8.87019 5.33511 5.97645 0.837639 3.38176
11.2029 5.42217 0.57623 -0.659439 3.43937 173.141 176.967 176.096 181.011 169.107
168.075 172.656 179.938 180.93 69.5586 73.7594 54.9145 -56.1915 -41.6666 -38.759
-37.1213 -31.2344 -43.8931 -52.074 -51.7405 -55.5253 -46.8293 100.732 154.44 162.084
155.224 146.951 -56.8015 -56.4018 -56.7042 -56.501 -55.9263 -56.4654 -54.9391 -55.2499
-55.0853 3.97486 -0.310329 171.223 -18.4655 186.004 190.252 189.4 -51.5016 -47.435
182.733 185.866 186.041 -16.3156 -51.2962 85.2104 -55.0315 -55.1599 -55.3969 -55.3793
-49.6511 189.376 -2.38937 189.492 185.51 189.085 7.41944 -64.228 110.597 109.909
-55.9094 4.60065 -51.7444 -53.1573 -51.8703 -138.549 138.694 -54.8988 159.185 -52.0061
-121.79 -121.705 72.2101 6.90855 2.40625 168.06 164.673 -15.4245 139.827 191.095
189.991 185.39 189.447 190.779 189.774 172.781 191.149 186.769 189.944 191.183
0.61516 0.610702 0.635995 0.705066 0.9188 1.62194 2.20712 -3.98261 1.35353 0.0210076
-4.09814 -5.86533 0.408093 0.0906807 -0.00155593 0.00479134 0.00957228 0.0048047 0.000102969 -0.0014454
-0.00103939 -0.000346044 0.000830571 0.000571849 -54.3304 -52.5678 -135.221 -135.79 -48.2946 -48.7392
-49.3627 -48.1393 -48.6246 -49.2913 -49.9164 -47.6617 -95.125 -74.6949 -49.1023 -47.5297
-74.1363 -49.0277 -51.3938 -51.7325 -50.887 -99.5648 -111.666 -130.665 -120.844 -120.653

U 3 2021 float
20.0061 -0.0456274 -0.215679 20.0437 -0.0305582 -0.0738961 19.9291 -0.00635715 -0.0963966 19.9357 -0.0557503
-0.606328 20.0177 -0.0595831 0.0399461 20.018 -0.0594763 0.0399786 20.168 -0.0785964 0.0573785
20.2326 -0.0868313 0.065359 20.278 -0.0918637 0.148593 20.2909 -0.117348 0.263113 20.21
-0.118511 0.20811 19.9548 -0.0475781 0.0199664 19.9969 -0.0549359 0.0184412 20.0038 -0.0532309
0.00708728 19.8536 -0.0249182 0.0178844 19.8524 -0.0216429 0.014374 20.006 -0.0529426 0.00200495
19.8547 -0.0201936 0.00995243 20.0045 -0.0521227 0.000620185 19.8538 -0.0185075 0.00911078 20.0027
-0.0512989 6.99594e-05 19.8524 -0.0169246 0.00884371 20.0012 -0.0505422 -0.000237286 19.8513 -0.0155681
0.00861813 19.9997 -0.0498729 -0.000446607 19.8502 -0.0143957 0.00839172 19.9981 -0.0492403 -0.000598071
19.849 -0.013334 0.00817982 19.9964 -0.0486213 -0.000715011 19.848 -0.0123709 0.00795421 19.9947
-0.0480175 -0.000760233 19.8469 -0.0114878 0.00784549 19.9928 -0.0473922 -0.000853672 19.8458 -0.0105513
0.00755418 19.8454 -0.0100608 0.00724677 19.9924 -0.0471941 -0.000893714 19.9996 -0.000339487 3.13945e-05
20 0 0 20 0 0 19.9996 -0.00033985 7.90884e-05 19.9983
-0.000781718 9.40394e-05 19.9984 -0.000792156 0.000279368 19.9942 -0.00154059 0.000367852 19.9941 -0.00150775
0.000999827 19.9788 -0.00277727 0.000335463 19.9796 -0.00310126 0.00357521 19.9465 -0.00539735 -0.00905241
19.9363 -0.00615487 -0.00794973 19.939 0.00233621 -0.0143107 19.9278 -0.00536848 -0.0294769 19.9062
0.00530573 -0.0609303 20.2329 -0.0727999 0.00179405 20.0483 -0.0287137 -0.0565308 20.235 -0.0719024
0.00504913 19.928 -0.0899325 0.0306039 20.0253 -0.119395 0.0818907 20.2323 -0.0867994 0.0648432
19.8557 -0.0302162 0.0235633 19.3064 0.121118 0.0101715 19.3385 0.118611 0.0112991 19.3665
0.112918 0.0114007 19.3877 0.10869 0.0121396 19.4061 0.104927 0.012692 19.4232 0.101333
0.0129019 19.4393 0.0979228 0.0129275 19.4544 0.0947177 0.0128642 19.4688 0.0916755 0.0127263
19.482 0.0888005 0.0126143 19.4969 0.0859545 0.0123364 19.5057 0.0844728 0.0120793 20
0 0 19.9996 -0.000340764 0.000137898 19.9985 -0.000791743 0.00049114 19.9946 -0.00151641
0.00171925 19.9801 -0.00323058 0.00602808 19.9199 -0.00872343 0.0107666 19.9196 -0.00787169 0.00103722
19.85 -0.0165102 -0.0956152 19.7935 -0.020468 -0.068029 19.9559 -0.0508434 -1.02445 20.4348
-0.067666 -0.933848 20.216 -0.0534236 -0.508704 19.9305 -0.0557794 -0.635791 20.3097 -0.165991
0.452518 20.31 -0.166893 0.455978 20.101 -0.253612 0.580364 19.9914 -0.242132 0.299797