# vtk DataFile Version 2.0
tracks
ASCII
DATASET POLYDATA
POINTS 2590 float
-1.001 -0.05 0.0011 -0.900789 -0.0500216 0.00109731 -0.800577 -0.0500431 0.00109463 -0.700366 -0.0500646
0.00109196 -0.600155 -0.050086 0.00108929 -0.499943 -0.0501073 0.00108663 -0.424945 -0.0501113 0.00107893
-0.349947 -0.0501523 0.00106882 -0.274949 -0.0501928 0.0010588 -0.19995 -0.0502331 0.00104888 -0.124952
-0.0502729 0.00103905 -0.0499538 -0.0502823 0.00103929 0.0250446 -0.0502912 0.00104802 0.100043 -0.0503001
0.00105683 0.175041 -0.0503091 0.00106572 0.25004 -0.0503182 0.00107468 0.400037 -0.0503122 0.00109077
0.550035 -0.0503103 0.00110501 0.700032 -0.0503084 0.00111943 0.85003 -0.0503065 0.00113405 1.00003
-0.0503046 0.00114885 1.15003 -0.0503153 0.00115605 1.30002 -0.0503209 0.00116054 1.45002 -0.0503266
0.00116505 1.60002 -0.0503323 0.00116957 1.75002 -0.050338 0.00117411 1.90002 -0.0503466 0.00117698
2.05002 -0.050353 0.00117892 2.20001 -0.0503595 0.00118086 2.35001 -0.050366 0.00118281 2.50001
-0.0503725 0.00118476 2.65001 -0.0503804 0.0011858 2.80001 -0.0503885 0.0011865 2.95001 -0.0503965
0.00118719 3.10001 -0.0504046 0.00118789 3.25001 -0.0504127 0.00118859 3.40001 -0.0504205 0.00118887
3.55001 -0.0504293 0.00118945 3.70001 -0.0504381 0.00119003 3.85001 -0.0504469 0.00119061 4.00001
-0.0504557 0.00119119 4.15 -0.0504634 0.00119127 4.3 -0.050473 0.00119194 4.45 -0.0504826
0.00119261 4.6 -0.0504922 0.00119329 4.75 -0.0505018 0.00119396 4.9 -0.0505094 0.00119396
5.05 -0.0505195 0.00119479 5.2 -0.0505295 0.00119562 5.35 -0.0505396 0.00119645 5.5
-0.0505497 0.00119728 5.65 -0.0505572 0.00119723 5.8 -0.0505676 0.00119822 5.95 -0.050578
0.00119921 6.1 -0.0505884 0.0012002 6.25 -0.0505988 0.00120119 6.4 -0.0506062 0.00120112
6.55 -0.0506168 0.00120224 6.7 -0.0506274 0.00120336 6.85 -0.050638 0.00120449 7
-0.0506487 0.00120561 7.15 -0.050656 0.00120552 7.3 -0.0506668 0.00120675 7.45 -0.0506775
0.00120798 7.6 -0.0506883 0.00120921 7.75 -0.0506991 0.00121045 7.9 -0.0507064 0.00121034
8.05 -0.0507172 0.00121166 8.2 -0.0507281 0.00121298 8.35 -0.050739 0.0012143 8.5
-0.0507498 0.00121562 8.65 -0.0507571 0.00121551 8.8 -0.050768 0.00121691 8.95 -0.050779
0.00121831 9.1 -0.0507899 0.0012197 9.25 -0.0508009 0.0012211 9.4 -0.0508081 0.00122098
9.55 -0.050865 0.00122307 9.7 -0.050973 0.00122589 9.85 -0.0511322 0.00122942 10
-0.0513425 0.00123366 -1.001 -0.05 0.0537316 -0.900807 -0.0501062 0.0535764 -0.800614 -0.0502127
0.053394 -0.700421 -0.0503427 0.0531779 -0.600229 -0.0505039 0.0529262 -0.500035 -0.0506961 0.0526389
-0.425004 -0.0509445 0.0524167 -0.349973 -0.0512825 0.0521275 -0.274943 -0.0516678 0.0518593 -0.199912
-0.0520868 0.0516334 -0.124879 -0.0524902 0.0514898 -0.0498864 -0.0527572 0.0515268 0.0251065 -0.0529779
0.0516927 0.100099 -0.0531938 0.0519271 0.175092 -0.0534189 0.0522096 0.250087 -0.0536391 0.0525272
0.400077 -0.0540258 0.053163 0.550067 -0.0544098 0.0536781 0.700057 -0.0547524 0.0541445 0.850047
-0.0550536 0.0545618 1.00003 -0.0553213 0.0549295 1.14686 -0.0556893 0.055208 1.29369 -0.0560256
0.0554677 1.44052 -0.0563593 0.0556938 1.58735 -0.0566902 0.0558861 1.70469 -0.0569526 0.0560127
1.71375 -0.0569737 0.0560211 1.72282 -0.0569948 0.0560295 1.73189 -0.057016 0.0560378 1.74095
-0.0570374 0.056046 1.75002 -0.0570588 0.0560541 1.90002 -0.0574154 0.0561873 2.05002 -0.0577675
0.0563033 2.20001 -0.0581159 0.0564016 2.35001 -0.0584603 0.0564823 2.50001 -0.0588009 0.0565454
2.65001 -0.0591468 0.0565973 2.80001 -0.0594922 0.0566426 2.95001 -0.0598368 0.0566802 3.10001
-0.0601806 0.0567101 3.25001 -0.0605236 0.0567323 3.40001 -0.0608675 0.0567494 3.55001 -0.0612128
0.0567658 3.70001 -0.0615566 0.0567802 3.85001 -0.0618989 0.0567926 4.00001 -0.0622397 0.0568029
4.15 -0.0625783 0.0568108 4.3 -0.0629207 0.0568197 4.45 -0.0632616 0.0568278 4.6
-0.063601 0.0568352 4.75 -0.0639389 0.0568418 4.9 -0.064272 0.0568461 5.05 -0.0646104
0.0568524 5.2 -0.0649475 0.0568583 5.35 -0.0652832 0.0568638 5.5 -0.0656175 0.0568689
5.65 -0.0659451 0.0568714 5.8 -0.0662791 0.0568765 5.95 -0.0666118 0.0568813 6.1
-0.0669434 0.0568858 6.25 -0.0672736 0.0568902 6.4 -0.0675959 0.0568916 6.55 -0.0679254
0.0568959 6.7 -0.0682537 0.0569002 6.85 -0.0685808 0.0569042 7 -0.0689066 0.0569081
7.15 -0.0692238 0.0569088 7.3 -0.0695486 0.0569127 7.45 -0.0698723 0.0569166 7.6
-0.0701947 0.0569203 7.75 -0.070516 0.0569239 7.9 -0.0708281 0.056924 8.05 -0.0711482
0.0569277 8.2 -0.0714671 0.0569314 8.35 -0.0717849 0.0569351 8.5 -0.0721016 0.0569387
8.65 -0.0724086 0.0569387 8.8 -0.0727239 0.0569424 8.95 -0.0730381 0.056946 9.1
-0.0733511 0.0569495 9.25 -0.0736629 0.0569529 9.4 -0.0739647 0.0569524 9.55 -0.0742755
0.0569559 9.7 -0.0745859 0.0569593 9.85 -0.0748957 0.0569627 10 -0.0752051 0.0569661
-1.001 -0.05 0.106363 -0.900818 -0.0500781 0.106138 -0.800636 -0.050154 0.105865 -0.700455
-0.0502567 0.105546 -0.600274 -0.0504297 0.105005 -0.50009 -0.0506727 0.104243 -0.424996 -0.0509602
0.103658 -0.349901 -0.0513091 0.103053 -0.274807 -0.0516623 0.102517 -0.199711 -0.0519611 0.102088
-0.124607 -0.0523039 0.101986 -0.0496046 -0.0525523 0.1021 0.0253975 -0.0527458 0.10233 0.100399
-0.0529264 0.102642 0.175401 -0.0531272 0.103039 0.250411 -0.0533481 0.103521 0.400346 -0.0537551
0.104521 0.550283 -0.0541602 0.105393 0.70022 -0.0545263 0.106177 0.850157 -0.0548616 0.106795
1.00009 -0.0551658 0.107245 1.15007 -0.0556055 0.10751 1.30006 -0.0559014 0.107807 1.45005
-0.0561463 0.108083 1.60003 -0.0563853 0.108327 1.75002 -0.0566183 0.108538 1.90002 -0.0569252
0.108682 2.05002 -0.0571688 0.108838 2.20001 -0.0574066 0.108977 2.35001 -0.0576419 0.109099
2.50001 -0.0578747 0.109204 2.65001 -0.0581639 0.109273 2.80001 -0.0584111 0.109341 2.95001
-0.0586572 0.109401 3.10001 -0.0589025 0.109454 3.25001 -0.0591471 0.109499 3.40001 -0.0594346
0.109533 3.55001 -0.0596858 0.109567 3.70001 -0.059935 0.109598 3.85001 -0.0601827 0.109628
4 -0.0604288 0.109655 4.15 -0.0607103 0.109681 4.3 -0.0609614 0.109702 4.45
-0.0612106 0.109723 4.6 -0.0614583 0.109743 4.75 -0.0617045 0.109762 4.9 -0.0619795
0.109785 5.05 -0.0622286 0.1098 5.2 -0.0624761 0.109815 5.35 -0.0627221 0.109829
5.5 -0.0629668 0.109843 5.65 -0.0632353 0.109864 5.8 -0.0634819 0.109875 5.95
-0.063727 0.109886 6.1 -0.0639708 0.109896 6.25 -0.0642134 0.109907 6.4 -0.0644759
0.109926 6.55 -0.0647196 0.109934 6.7 -0.0649619 0.109942 6.85 -0.065203 0.109949
7 -0.0654429 0.109956 7.15 -0.0656996 0.109975 7.3 -0.0659402 0.10998 7.45
-0.0661794 0.109986 7.6 -0.0664175 0.109991 7.75 -0.0666544 0.109996 7.9 -0.0669054
0.110014 8.05 -0.0671426 0.110018 8.2 -0.0673786 0.110021 8.35 -0.0676135 0.110025
8.5 -0.0678472 0.110028 8.65 -0.0680927 0.110046 8.8 -0.0683264 0.110048 8.95
-0.0685588 0.110051 9.1 -0.0687901 0.110053 9.25 -0.0690202 0.110055 9.4 -0.06926
0.110072 9.55 -0.0694905 0.110073 9.7 -0.0697203 0.110074 9.85 -0.0699496 0.110075
10 -0.0701784 0.110076 -1.001 -0.05 0.158995 -0.900796 -0.0500886 0.15877 -0.800593
-0.0501932 0.158424 -0.700392 -0.050355 0.157687 -0.600196 -0.0505871 0.156475 -0.499992 -0.0508811
0.154635 -0.42472 -0.0514887 0.153033 -0.349437 -0.0519568 0.152114 -0.274149 -0.0523542 0.151553
-0.19886 -0.0527496 0.151261 -0.123699 -0.0530671 0.151316 -0.0487805 -0.05319 0.151479 0.0261371
-0.0532682 0.15196 0.101053 -0.0534074 0.152665 0.175968 -0.0535735 0.153463 0.250944 -0.0537267
0.154291 0.400783 -0.0539367 0.155713 0.550624 -0.0544416 0.156891 0.700468 -0.0549121 0.157645
0.850313 -0.0553088 0.158244 1.00014 -0.0556742 0.158675 1.15012 -0.0561759 0.158922 1.30009
-0.0565333 0.1592 1.45007 -0.0567976 0.159468 1.60005 -0.0569851 0.159722 1.75002 -0.0571667
0.159944 1.90002 -0.0574233 0.160099 2.05002 -0.057616 0.160265 2.20002 -0.0577967 0.160417
2.35001 -0.0579686 0.160554 2.50001 -0.0581382 0.160673 2.65001 -0.0583646 0.160757 2.80001
-0.0585489 0.160839 2.95001 -0.0587309 0.160915 3.10001 -0.0589113 0.160983 3.25001 -0.0590911
0.161043 3.40001 -0.0593138 0.161094 3.55001 -0.0595003 0.161142 3.70001 -0.0596841 0.16119
3.85001 -0.0598656 0.161236 4 -0.0600455 0.16128 4.15 -0.0602606 0.161322 4.3
-0.0604457 0.16136 4.45 -0.0606281 0.161398 4.6 -0.0608084 0.161434 4.75 -0.0609872
0.161471 4.9 -0.0611945 0.16151 5.05 -0.0613763 0.161542 5.2 -0.0615559 0.161574
5.35 -0.0617336 0.161606 5.5 -0.0619099 0.161637 5.65 -0.0621097 0.161675 5.8
-0.062288 0.161703 5.95 -0.0624643 0.161731 6.1 -0.0626389 0.161758 6.25 -0.0628122
0.161786 6.4 -0.0630052 0.161822 6.55 -0.0631797 0.161847 6.7 -0.0633525 0.161872
6.85 -0.0635237 0.161897 7 -0.0636937 0.161921 7.15 -0.0638801 0.161956 7.3
-0.0640507 0.161979 7.45 -0.0642198 0.162001 7.6 -0.0643874 0.162024 7.75 -0.0645539
0.162046 7.9 -0.064734 0.16208 8.05 -0.0649008 0.162101 8.2 -0.0650661 0.162121
8.35 -0.0652301 0.162142 8.5 -0.065393 0.162162 8.65 -0.0655672 0.162196 8.8
-0.06573 0.162216 8.95 -0.0658913 0.162235 9.1 -0.0660511 0.162254 9.25 -0.0662099
0.162273 9.4 -0.0663779 0.162305 9.55 -0.0665369 0.162323 9.7 -0.0666951 0.162341
9.85 -0.0668525 0.162358 10 -0.0670095 0.162375 -1.001 -0.05 0.211626 -0.947629
-0.0500806 0.211469 -0.894259 -0.0501659 0.211278 -0.840889 -0.0502556 0.211054 -0.787519 -0.05039
0.210763 -0.724299 -0.0506338 0.210285 -0.679425 -0.0509115 0.209635 -0.634555 -0.0512466 0.208756
-0.589688 -0.0515856 0.207741 -0.544824 -0.0519297 0.206587 -0.499928 -0.0522801 0.205294 -0.469429
-0.0525744 0.204241 -0.438933 -0.0528789 0.203125 -0.408432 -0.0531679 0.202136 -0.377926 -0.0534425
0.201268 -0.329625 -0.0538621 0.200029 -0.28866 -0.0542021 0.199124 -0.247691 -0.0545419 0.198434
-0.206718 -0.0548858 0.198058 -0.165743 -0.0551941 0.197969 -0.124884 -0.0554278 0.198143 -0.0496126
-0.0557338 0.198855 0.025657 -0.0558708 0.199805 0.100922 -0.0559793 0.201086 0.176185 -0.056121
0.202447 0.251487 -0.0562556 0.203601 0.25172 -0.056256 0.203604 0.251952 -0.0562563 0.203607
0.252185 -0.0562567 0.20361 0.252417 -0.056257 0.203613 0.252651 -0.0562574 0.203616 0.327175
-0.0563695 0.204592 0.4017 -0.0564836 0.205442 0.476227 -0.0565998 0.206164 0.550755 -0.0567446
[...]
POINT_DATA 2590
FIELD attributes 4
age 1 2590 float
0 0.00501121 0.0100224 0.0150336 0.0200448 0.025056 0.0288056 0.0325533 0.036301 0.0400488 0.0437965
0.0475449 0.0512905 0.0550361 0.0587817 0.0625272 0.070024 0.0775229 0.0850219 0.0925208 0.10002
0.10752 0.115019 0.122519 0.130019 0.137519 0.145019 0.152519 0.160019 0.167518 0.175018
0.182518 0.190018 0.197517 0.205017 0.212517 0.220017 0.227516 0.235016 0.242516 0.250015
0.257515 0.265015 0.272515 0.280014 0.287514 0.295014 0.302514 0.310014 0.317513 0.325013
0.332513 0.340013 0.347512 0.355012 0.362512 0.370012 0.377512 0.385011 0.392511 0.400011
0.407511 0.415011 0.42251 0.43001 0.43751 0.44501 0.452509 0.460009 0.467509 0.475009
0.482509 0.490009 0.497508 0.505008 0.512508 0.520008 0.527507 0.535005 0.542503 0.55
0 0.00502601 0.0100533 0.0150746 0.0200878 0.0250929 0.028832 0.0325652 0.0362916 0.0400112
0.0437246 0.0474308 0.0511301 0.0548275 0.0585248 0.0622239 0.0696346 0.0770706 0.0845214 0.0919869
0.0994671 0.106803 0.114139 0.121477 0.128816 0.134683 0.135136 0.13559 0.136043 0.136496
0.13695 0.14445 0.15195 0.159449 0.166948 0.174446 0.181945 0.189442 0.196939 0.204436
0.211933 0.219431 0.226927 0.234424 0.241921 0.249419 0.256917 0.264414 0.271911 0.279409
0.286907 0.294405 0.301903 0.309401 0.316899 0.324398 0.331897 0.339395 0.346894 0.354392
0.361891 0.36939 0.376889 0.384388 0.391887 0.399387 0.406887 0.414386 0.421885 0.429385
0.436885 0.444385 0.451885 0.459385 0.466885 0.474385 0.481887 0.489387 0.496887 0.504388
0.511889 0.519391 0.526892 0.534392 0.541893 0.549394 0 0.005028 0.0100578 0.0150819
0.0200993 0.0251104 0.0288575 0.0325974 0.0363282 0.0400541 0.0437702 0.0474749 0.0511738 0.0548716
0.0585685 0.062265 0.0696633 0.0770887 0.0845321 0.0919977 0.099485 0.106988 0.114492 0.122
0.129508 0.137018 0.144533 0.152042 0.15955 0.167058 0.174565 0.182077 0.189583 0.197089
0.204594 0.212099 0.219611 0.227116 0.234621 0.242126 0.249631 0.257143 0.264649 0.272154
0.27966 0.287165 0.294678 0.302184 0.30969 0.317196 0.324702 0.332215 0.339721 0.347227
0.354734 0.36224 0.369754 0.37726 0.384767 0.392274 0.39978 0.407295 0.414801 0.422308
0.429816 0.437323 0.444837 0.452345 0.459852 0.46736 0.474867 0.482382 0.48989 0.497398
0.504906 0.512414 0.51993 0.527438 0.534946 0.542454 0.549962 0 0.00503011 0.0100663
0.0150995 0.020127 0.0251495 0.0289152 0.0326691 0.036411 0.0401426 0.0438574 0.0475523 0.0512419
0.0549303 0.058618 0.0623092 0.0696963 0.0771196 0.0845736 0.092044 0.0995357 0.107048 0.114561
0.122079 0.129602 0.137125 0.144655 0.152178 0.159701 0.167224 0.174746 0.182274 0.189795
0.197315 0.204836 0.212356 0.219883 0.227403 0.234923 0.242444 0.249964 0.257491 0.265012
0.272533 0.280053 0.287574 0.295102 0.302623 0.310144 0.317666 0.325187 0.332715 0.340237
0.347758 0.35528 0.362801 0.37033 0.377852 0.385374 0.392896 0.400418 0.407947 0.41547
0.422992 0.430514 0.438037 0.445567 0.453089 0.460612 0.468135 0.475658 0.483188 0.490711
0.498234 0.505757 0.51328 0.520811 0.528335 0.535858 0.543382 0.550905 0 0.00268286
0.0053674 0.00805363 0.0107392 0.0139184 0.0161735 0.0184282 0.0206821 0.0229353 0.0251893 0.0267182
0.028245 0.0297688 0.0312897 0.0336923 0.0357222 0.0377464 0.0397652 0.0417783 0.0437801 0.0474589
0.051139 0.0548203 0.0585083 0.0622089 0.0622204 0.0622318 0.0622433 0.0622547 0.0622662 0.0659372
0.0696182 0.0733093 0.0770106 0.0807219 0.0813149 0.0819079 0.082501 0.0830941 0.0836728 0.086829
0.0899877 0.0931491 0.0963131 0.099479 0.107 0.114522 0.122048 0.12958 0.137117 0.14466
0.152197 0.159734 0.16727 0.174807 0.18235 0.189885 0.19742 0.204955 0.21249 0.220032
0.227567 0.235101 0.242636 0.250171 0.257713 0.265248 0.272784 0.280319 0.287854 0.295397
0.302933 0.310468 0.318004 0.32554 0.333083 0.340619 0.348155 0.355692 0.363228 0.370771
0.378308 0.385844 0.393381 0.400918 0.408462 0.415999 0.423535 0.431073 0.43861 0.446154
0.453691 0.461229 0.468766 0.476304 0.483849 0.491386 0.498924 0.506462 0.514 0.521545
0.529083 0.536622 0.54416 0.551698 0 0.00126445 0.00252927 0.00379478 0.00506109 0.00632822
0.0101158 0.0139116 0.0177191 0.0215332 0.0253297 0.0269111 0.0284822 0.0300465 0.0316037 0.0329975
0.0333244 0.0336509 0.0339771 0.0343031 0.034629 0.0364572 0.0382783 0.0400905 0.0418975 0.043695
0.0454955 0.0473006 0.0491178 0.0509398 0.0527661 0.0529104 0.0530549 0.0531993 0.0533437 0.0534949
0.0551804 0.0568687 0.0585597 0.0602537 0.0619503 0.0656461 0.0693587 0.0730892 0.0768306 0.0805809
0.0843444 0.088107 0.0918704 0.0956364 0.0994049 0.106941 0.114478 0.122021 0.129567 0.137117
0.144683 0.152235 0.159788 0.167341 0.174894 0.182454 0.190006 0.197558 0.205109 0.21266
0.220219 0.22777 0.235321 0.242872 0.250423 0.257982 0.265533 0.273084 0.280636 0.288188
0.295747 0.303299 0.31085 0.318402 0.325954 0.333514 0.341066 0.348618 0.35617 0.363723
0.371283 0.378835 0.386387 0.39394 0.401493 0.409053 0.416606 0.424159 0.431712 0.439265
0.446825 0.454378 0.461931 0.469485 0.477038 0.484599 0.492153 0.499706 0.50726 0.514813
0.522375 0.529928 0.537482 0.545036 0.552589 0 0.00126545 0.00253142 0.0037979 0.0050649
0.00633243 0.00822683 0.0101236 0.0120229 0.0139249 0.0158291 0.0177466 0.0196689 0.0215922 0.0235187
0.0254575 0.0264287 0.0273972 0.0283613 0.0293209 0.0302803 0.030756 0.0312301 0.0317022 0.0321721
0.0326864 0.0331415 0.0335946 0.0340458 0.0344949 0.0349416 0.0358519 0.0367589 0.0376619 0.0385607
0.0394506 0.0403397 0.0412273 0.0421143 0.0430009 0.0438882 0.0452212 0.0465608 0.0479073 0.0492539
0.0528824 0.0547111 0.0565536 0.0584074 0.0602678 0.0621289 0.0640001 0.0658724 0.0677468 0.0696238
0.0715049 0.0733935 0.0752765 0.0771556 0.0790366 0.0809228 0.0840668 0.0872151 0.0903651 0.0935166
0.0961828 0.0969294 0.0976762 0.0984231 0.0991701 0.0999173 0.107511 0.115106 0.122706 0.130309
0.137916 0.145549 0.153156 0.160759 0.168361 0.175963 0.183584 0.191184 0.198782 0.20638
0.213978 0.221594 0.229192 0.236788 0.244384 0.251981 0.259596 0.267193 0.274788 0.282385
0.289981 0.297594 0.305191 0.312786 0.320382 0.327978 0.33559 0.343186 0.350781 0.358376
0.365972 0.373582 0.381178 0.388773 0.396368 0.403963 0.411572 0.419167 0.426762 0.434356
0.441951 0.449559 0.457154 0.464748 0.472342 0.479937 0.487544 0.495138 0.502732 0.510326
0.51792 0.525525 0.533119 0.540713 0.548306 0.5559 0 0.00126279 0.00252626 0.00379076
0.00505645 0.00632331 0.00823335 0.0101454 0.0120612 0.0139803 0.0159048 0.0178221 0.0197524 0.0216955
0.0236513 0.0256296 0.0266296 0.0276304 0.0286316 0.0296319 0.0306441 0.0308911 0.0311381 0.0313847
0.0316294 0.0318191 0.03257 0.0333085 0.0340338 0.0347454 0.0354488 0.0358957 0.0363409 0.0367846
0.0372269 0.0376632 0.0381005 0.038535 0.0389672 0.0393986 0.0398277 0.0402596 0.0406916 0.0411236
0.0415563 0.0419915 0.0424269 0.0428617 0.043297 0.0437331 0.0441714 0.0450481 0.0459342 0.0468308
0.0477384 0.048663 0.0493877 0.0501116 0.0508377 0.051567 0.0524598 0.0526376 0.0528155 0.0529935
0.0531716 0.0533499 0.0543035 0.0552555 0.0562097 0.0571674 0.0581271 0.0590957 0.0600636 0.0610326
0.0620046 0.0629783 0.0649469 0.0669105 0.0688689 0.0708317 0.0727774 0.0747091 0.0766558 0.0786178
0.0805845 0.0825557 0.0865178 0.0904716 0.0943993 0.0983108 0.102226 0.110055 0.117851 0.125576
0.133241 0.14091 0.148609 0.156286 0.163958 0.171626 0.179291 0.186973 0.194637 0.2023
0.20996 0.21762 0.225294 0.232954 0.240612 0.248269 0.255925 0.263595 0.271252 0.278907
0.286562 0.294216 0.301882 0.309536 0.31719 0.324842 0.332494 0.340157 0.347809 0.35546
0.36311 0.370761 0.37842 0.38607 0.393719 0.401367 0.409015 0.416672 0.42432 0.431967
0.439613 0.447259 0.454913 0.462559 0.470204 0.477849 0.485493 0.493144 0.500788 0.508431
0.516074 0.523716 0.531363 0.539006 0.546647 0.554288 0.561929 0 0.00126442 0.00252949
0.0037952 0.00506157 0.00632918 0.00824624 0.0101657 0.0120885 0.0140175 0.0159588 0.0169289 0.0179018
0.018878 0.0198573 0.0208398 0.0218274 0.0228232 0.0238279 0.0248417 0.0258658 0.0263835 0.0269028
0.0274259 0.0279526 0.0284856 0.0287759 0.0290677 0.0293617 0.0296584 0.0297563 0.0300564 0.0303579
0.0306602 0.0309623 0.0312727 0.0313692 0.0314657 0.0315623 0.0316591 0.0317299 0.0317652 0.0318005
0.0318358 0.0318711 0.0319047 0.0320681 0.0322314 0.0323945 0.0325574 0.0327216 0.0329006 0.0330791
0.0332571 0.0334322 0.0335614 0.0336669 0.0337719 0.0338762 0.0339796 0.0340846 0.0341948 0.0343036
0.0344109 0.0345172 0.034604 0.034659 0.0347136 0.0347678 0.0348218 0.0348746 0.034972 0.035069
0.0351656 0.0352617 0.0353557 0.0354784 0.0355996 0.0357193 0.035838 0.036032 0.0361318 0.0362312
0.0363303 0.0364292 0.0365184 0.0366038 0.0366893 0.0367748 0.0368603 0.0370149 0.0371389 0.0372626
0.0373862 0.0375096 0.0376312 0.0378503 0.0380678 0.0382852 0.0385034 0.038718 0.0389364 0.0391542
0.0393723 0.0395908 0.0398092 0.0400306 0.0402502 0.0404701 0.0406902 0.040911 0.0411317 0.0413519
0.0415724 0.0417936 0.0420174 0.0422425 0.0424657 0.0426889 0.0429128 0.0431377 0.0434682 0.0438002
0.0441376 0.0444808 0.0446452 0.0448106 0.0449763 0.0451423 0.0453088 0.0454765 0.0459651 0.0464458
0.0469266 0.0474027 0.0479005 0.0484192 0.0489272 0.0494357 0.049949 0.0504696 0.0505355 0.0506015
0.0506676 0.0507338 0.0507987 0.0518128 0.0528685 0.0539694 0.0550325 0.0561077 0.0573131 0.0584965
0.059681 0.0608715 0.0620619 0.0624638 0.0628648 0.0632657 0.0636667 0.0641194 0.0649252 0.0657229
0.0665172 0.0673137 0.0681089 0.0682662 0.0684233 0.0685798 0.0687356 0.0688894 0.0699204 0.0709493
0.0719763 0.0730014 0.0740219 0.0751757 0.0763504 0.0775287 0.0787085 0.0798906 0.0813657 0.0828418
0.0843243 0.0858107 0.087702 0.088443 0.089181 0.0899159 0.0906477 0.091376 0.095885 0.10037
0.10478 0.109099 0.113286 0.121461 0.129572 0.137611 0.145578 0.153463 0.161224 0.168984
0.176742 0.184498 0.19225 0.199999 0.207748 0.215495 0.22324 0.230983 0.238223 0.245463
0.252701 0.259939 0.267307 0.26778 0.268253 0.268726 0.269199 0.269672 0.277406 0.28514
0.292875 0.300609 0.308343 0.316069 0.323803 0.331537 0.339271 0.347006 0.354725 0.362458
0.370192 0.377925 0.385659 0.393372 0.401105 0.408837 0.41657 0.424303 0.43201 0.439742
0.447474 0.455206 0.462938 0.470639 0.47837 0.486101 0.493832 0.501564 0.509259 0.516989
0.524719 0.532448 0.540178 0.547868 0.555595 0.563323 0.571051 0.578779 0 0.00125411
0.00250917 0.00376554 0.00502336 0.00628274 0.00821405 0.0101481 0.0120849 0.0140287 0.0159869 0.0169596
0.0179362 0.0189168 0.0199015 0.0208903 0.0218848 0.02289 0.0239069 0.0249357 0.0259773 0.0265059
0.0270378 0.0275763 0.0281217 0.028676 0.0292415 0.0298148 0.030401 0.0310012 0.031628 0.0319469
0.0322656 0.0325851 0.0329057 0.0332407 0.0333123 0.0333838 0.0334554 0.033527 0.0335853 0.0336611
0.0337355 0.033809 0.0338819 0.0339435 0.0341151 0.0342833 0.0344483 0.0346098 0.0347767 0.0349192
0.0350589 0.0351961 0.0353299 0.0354491 0.0355695 0.0356894 0.0358088 0.0359265 0.0360384 0.0361556
0.0362697 0.0363809 0.0364915 0.0366374 0.0367446 0.0368516 0.0369584 0.0370649 0.0371627 0.03736
0.0375573 0.0377579 0.0379614 0.0383811 0.0386146 0.0388485 0.0390803 0.0393102 0.0395353 0.0399979
0.0404546 0.0409079 0.0413582 0.0418039 0.0422618 0.0427044 0.0431504 0.0435996 0.0440519 0.0445262
0.0449946 0.0454739 0.0459577 0.0464497 0.0472797 0.0481283 0.04899 0.0498708 0.049872 0.0502568
0.0506405 0.0510234 0.0514053 0.0517888 0.0529158 0.0540434 0.0551948 0.0563658 0.0575712 0.0588346
0.0600707 0.0612912 0.0625214 0.0637554 0.0645914 0.0654174 0.066243 0.0670643 0.068067 0.0684496
0.0688325 0.0692156 0.069599 0.0699829 0.070631 0.0712799 0.0719298 0.0725806 0.0733482 0.0739248
0.0745011 0.0750772 0.0756521 0.0762239 0.0774713 0.0787223 0.0799813 0.0812405 0.0824995 0.084998
0.0875006 0.0899713 0.092399 0.0947979 0.0996401 0.104431 0.109083 0.113598 0.117959 0.12119
0.12441 0.127619 0.130818 0.134657 0.139639 0.144555 0.149406 0.154195 0.158921 0.166681
0.174451 0.18222 0.189988 0.197755 0.205499 0.213264 0.221029 0.228793 0.236556 0.24429
0.252052 0.259814 0.267576 0.275338 0.283063 0.290823 0.298584 0.306345 0.314106 0.321824
0.329583 0.337343 0.345103 0.352863 0.360574 0.368333 0.376091 0.38385 0.391609 0.399314
0.407071 0.414828 0.422585 0.430343 0.438042 0.445798 0.453553 0.461309 0.469065 0.476759
0.484512 0.492266 0.50002 0.507775 0.515464 0.523216 0.530968 0.53872 0.546472 0.554155
0.561903 0.569652 0.577402 0.585151 0 0.00125903 0.00251875 0.00377914 0.00504095 0.00630441
0.0082331 0.0101647 0.0120993 0.0140412 0.0159973 0.0169702 0.0179472 0.0189283 0.0199136 0.0209032
0.0218976 0.0229027 0.0239195 0.024948 0.0259895 0.0265185 0.0270504 0.027588 0.0281324 0.028686
0.029249 0.0298197 0.0303998 0.0309925 0.0316147 0.0319309 0.0322477 0.0325649 0.0328821 0.0332118
0.0334495 0.0336859 0.0339203 0.0341487 0.0342454 0.0343492 0.034452 0.0345536 0.0346541 0.0347573
0.0349585 0.0351528 0.0353407 0.0355225 0.0356771 0.0357553 0.0358333 0.0359105 0.035987 0.0360649
0.0360665 0.036068 0.0360696 0.0360712 0.0360727 0.0362167 0.0363594 0.0365007 0.0366407 0.0368451
0.0369214 0.0369976 0.0370737 0.0371497 0.0372218 0.0376808 0.0381447 0.0386219 0.0391067 0.0395211
0.0399829 0.0404339 0.0408834 0.0413348 0.0417938 0.0422688 0.0427343 0.0431964 0.0436608 0.0441346
0.0446256 0.0451074 0.0455839 0.0460657 0.0465612 0.047592 0.0486454 0.0497106 0.0507955 0.0516845
0.0517308 0.0517771 0.0518234 0.0518697 0.0519159 0.053042 0.0541944 0.055374 0.0565765 0.0577978
0.0590664 0.0603127 0.0615399 0.0627838 0.0640216 0.0646433 0.065256 0.065866 0.0664746 0.0670852
0.0677097 0.0683245 0.0689311 0.0695383 0.0701515 0.0713986 0.0726554 0.0739091 0.0751577 0.0763959
0.0772257 0.0780473 0.0788699 0.0796945 0.0806245 0.0810273 0.0814303 0.0818335 0.0822374 0.082642
0.0851462 0.087636 0.0901108 0.0925289 0.0949188 0.0996754 0.104385 0.108984 0.11347 0.117813
0.12504 0.132169 0.13917 0.146045 0.159046 0.163974 0.168901 0.173827 0.178751 0.1838
0.186597 0.189394 0.192191 0.194988 0.197784 0.205524 0.213266 0.221007 0.228749 0.236489
0.244218 0.251957 0.259697 0.267436 0.275176 0.282896 0.290634 0.298373 0.306112 0.313851
0.321564 0.329302 0.33704 0.344778 0.352517 0.360224 0.367961 0.375698 0.383435 0.391173
0.398874 0.40661 0.414346 0.422083 0.429819 0.437515 0.44525 0.452985 0.46072 0.468456
0.476145 0.483879 0.491613 0.499347 0.507081 0.514766 0.522499 0.530231 0.537964 0.545696
0.553375 0.561105 0.568835 0.576565 0.584295 0 0.00127992 0.00256048 0.0038423 0.0051256
0.00641039 0.00831682 0.0102258 0.0121375 0.0140557 0.015986 0.016958 0.0179331 0.0189116 0.0198934
0.0208789 0.021873 0.0228762 0.0238893 0.0249123 0.0259475 0.0263893 0.0268328 0.0272797 0.02773
0.0278538 0.0280033 0.028153 0.0283028 0.0284527 0.0286029 0.0291463 0.029694 0.0302489 0.0308125
0.0313971 0.0314719 0.0315466 0.0316213 0.031696 0.0317609 0.0319784 0.0321959 0.0324133 0.0326304
0.0328511 0.0329309 0.0330106 0.0330902 0.0331695 0.0332384 0.0334494 0.0336597 0.0338688 0.0340747
0.034287 0.0343493 0.0344111 0.0344725 0.0345335 0.0345865 0.0345918 0.0345972 0.0346025 0.0346079
0.0346132 0.0348286 0.0350393 0.0352457 0.0354446 0.0356351 0.0356568 0.0356784 0.0357 0.0357216
0.0357436 0.0358454 0.0359463 0.0360461 0.0361472 0.0362916 0.0363854 0.0364785 0.036571 0.0366626
0.0367518 0.0368555 0.0369585 0.0370611 0.0371638 0.0373117 0.037411 0.03751 0.0376091 0.0377089
0.0378064 0.0380182 0.0382282 0.0384376 0.0386464 0.0388585 0.0390784 0.0392938 0.039505 0.0397162
0.0399301 0.0401461 0.0403606 0.0405741 0.0407881 0.0410046 0.0412256 0.041443 0.0416593 0.0418758
0.0420933 0.0423121 0.0425294 0.0427465 0.042964 0.0431828 0.0436277 0.0440729 0.0445214 0.0449732
0.0454332 0.0459119 0.0463785 0.0468371 0.0472988 0.047774 0.0482566 0.0487374 0.0492181 0.0497026
0.0501951 0.0512116 0.0522338 0.0532679 0.0543556 0.0554605 0.0558174 0.0561747 0.056533 0.0568928
0.0572724 0.0580711 0.0588692 0.0596669 0.0604683 0.0612778 0.0624774 0.0636528 0.0648349 0.066032
0.0672241 0.0684507 0.0696531 0.070833 0.0720066 0.0731723 0.0736206 0.0740681 0.0745161 0.0749645
0.0754045 0.0757321 0.0760599 0.0763879 0.0767161 0.0770532 0.0774497 0.0778465 0.0782436 0.078641
0.0790386 0.0813839 0.0837312 0.0860779 0.0883944 0.0906831 0.0951923 0.0997539 0.104223 0.108549
0.112766 0.121077 0.129357 0.137575 0.145621 0.153497 0.161239 0.16898 0.176718 0.184452
0.192184 0.199911 0.207639 0.215365 0.223089 0.230811 0.237511 0.244211 0.25091 0.257608
0.264315 0.265331 0.266348 0.267365 0.268382 0.269399 0.277112 0.284827 0.292542 0.300257
0.307971 0.315678 0.323393 0.331107 0.338822 0.346536 0.354237 0.361951 0.369665 0.37738
0.385094 0.392789 0.400502 0.408216 0.41593 0.423643 0.431333 0.439046 0.446759 0.454472
0.462184 0.469869 0.477581 0.485293 0.493005 0.500717 0.508397 0.516108 0.523819 0.531529
0.53924 0.546915 0.554623 0.562332 0.570042 0.577751 0 0.00127753 0.00255577 0.00383513
0.00511576 0.00639769 0.00829926 0.0102028 0.0121092 0.0140204 0.0159397 0.0169038 0.0178699 0.0188378
0.0198081 0.0207805 0.0217543 0.0227331 0.0237171 0.0247057 0.0256981 0.0266889 0.0276859 0.0286913
0.0296918 0.0307003 0.0307754 0.0308504 0.0309255 0.0310004 0.0310696 0.031992 0.0328949 0.0337774
0.0346386 0.0354973 0.0359452 0.0363908 0.0368344 0.0372769 0.037714 0.0381525 0.0385886 0.0390238
0.0394583 0.0398871 0.0403201 0.0407533 0.0411868 0.0416206 0.042055 0.0424912 0.0429263 0.0433622
0.0437991 0.0442379 0.0451159 0.0460026 0.0468958 0.0477966 0.0487223 0.0496694 0.050609 0.051542
0.0524819 0.0534312 0.0541562 0.0548865 0.055619 0.0563532 0.057477 0.0576388 0.0578008 0.0579628
0.058125 0.0582872 0.059271 0.0602543 0.0612379 0.0622212 0.0632036 0.0652039 0.0671911 0.0691676
0.0711537 0.0731373 0.0750959 0.0770808 0.0790806 0.0810843 0.0830898 0.0871024 0.0911319 0.0951296
0.0990821 0.103029 0.105889 0.108755 0.111628 0.114495 0.117869 0.122829 0.127762 0.132668
0.137547 0.142399 0.150109 0.157822 0.165532 0.17324 0.180946 0.188639 0.19634 0.204039
0.211737 0.219434 0.227121 0.234814 0.242506 0.250198 0.257888 0.26557 0.273258 0.280945
0.288631 0.296316 0.303995 0.311678 0.31936 0.327041 0.334722 0.342398 0.350076 0.357754
0.365431 0.373107 0.38078 0.388454 0.396128 0.403801 0.411474 0.419143 0.426814 0.434484
0.442153 0.449822 0.457488 0.465155 0.472822 0.480488 0.488153 0.495817 0.503481 0.511144
0.518806 0.526468 0.534128 0.541788 0.549448 0.557108 0.564767 0 0.00127409 0.0025488
0.00382396 0.00510035 0.00637797 0.00827387 0.0101719 0.0120722 0.0139756 0.015883 0.0177923 0.0197069
0.0216263 0.0235504 0.0254824 0.0264533 0.0274211 0.0283841 0.0293421 0.0299592 0.0309777 0.0319885
0.0329888 0.0339789 0.0349573 0.0358662 0.0367718 0.0376733 0.0385719 0.0394614 0.040352 0.0412411
0.0421291 0.0430162 0.0439025 0.0456797 0.0474742 0.0492832 0.0511019 0.052937 0.0537982 0.0546607
0.0555252 0.0563918 0.0577342 0.0586271 0.0595218 0.0604183 0.0613166 0.0622164 0.064092 0.0659705
0.0678517 0.0697356 0.0716215 0.073517 0.0754047 0.0772934 0.0791835 0.0810746 0.0848706 0.0886658
0.0924655 0.0962696 0.100088 0.107787 0.115488 0.123145 0.130764 0.138399 0.146048 0.153694
0.161339 0.168983 0.176624 0.184271 0.191913 0.199554 0.207194 0.214832 0.222474 0.230112
0.237749 0.245385 0.253021 0.260659 0.268295 0.275929 0.283563 0.291196 0.298832 0.306465
0.314097 0.321729 0.32936 0.336993 0.344624 0.352255 0.359884 0.367513 0.375144 0.382773
0.390401 0.398028 0.405655 0.413284 0.420911 0.428537 0.436162 0.443787 0.451414 0.459039
0.466663 0.474287 0.48191 0.489534 0.497157 0.50478 0.512401 0.520022 0.527645 0.535265
0.542885 0.550505 0.558125 0 0.00127142 0.00254321 0.00381554 0.00508846 0.00636199 0.0101414
0.0139323 0.0177224 0.0215091 0.0252997 0.02579 0.0262792 0.0267674 0.0272548 0.027684 0.029074
0.0304588 0.0318385 0.033213 0.034585 0.0364261 0.0382577 0.0400725 0.0418832 0.0436888 0.0455
0.0473086 0.0491186 0.0509373 0.0527674 0.0546036 0.0564413 0.0582818 0.0601252 0.0619711 0.0656733
0.0693893 0.0731213 0.0768683 0.0806189 0.0843893 0.0881579 0.0919267 0.0956975 0.0994708 0.107
0.114529 0.122062 0.12961 0.137174 0.144752 0.152328 0.159905 0.167482 0.175058 0.18264