# vtk DataFile Version 2.0
tracks
ASCII
DATASET POLYDATA
POINTS 2590 float
-1.001 -0.05 0.0011 -0.900789 -0.0500216 0.00109731 -0.800577 -0.0500431 0.00109463 -0.700366 -0.0500645
0.00109196 -0.600155 -0.0500859 0.00108929 -0.499943 -0.0501073 0.00108663 -0.424945 -0.0501112 0.00107893
-0.349947 -0.0501521 0.00106879 -0.274949 -0.0501927 0.00105875 -0.19995 -0.0502329 0.00104881 -0.124952
-0.0502727 0.00103896 -0.0499538 -0.0502821 0.00103919 0.0250446 -0.050291 0.00104792 0.100043 -0.0502999
0.00105672 0.175041 -0.0503089 0.0010656 0.25004 -0.050318 0.00107456 0.400037 -0.0503119 0.00109064
0.550035 -0.0503101 0.00110487 0.700032 -0.0503082 0.00111927 0.85003 -0.0503064 0.00113387 1.00003
-0.0503045 0.00114865 1.15003 -0.0503151 0.00115585 1.30002 -0.0503208 0.00116033 1.45002 -0.0503265
0.00116482 1.60002 -0.0503323 0.00116933 1.75002 -0.050338 0.00117385 1.90002 -0.0503466 0.00117672
2.05002 -0.0503531 0.00117864 2.20001 -0.0503596 0.00118058 2.35001 -0.0503661 0.00118251 2.50001
-0.0503726 0.00118445 2.65001 -0.0503806 0.00118549 2.80001 -0.0503886 0.00118618 2.95001 -0.0503967
0.00118686 3.10001 -0.0504048 0.00118755 3.25001 -0.0504129 0.00118823 3.40001 -0.0504208 0.00118852
3.55001 -0.0504296 0.00118909 3.70001 -0.0504384 0.00118966 3.85001 -0.0504472 0.00119023 4.00001
-0.0504561 0.0011908 4.15 -0.0504638 0.00119088 4.3 -0.0504734 0.00119154 4.45 -0.050483
0.00119221 4.6 -0.0504926 0.00119287 4.75 -0.0505022 0.00119353 4.9 -0.0505098 0.00119353
5.05 -0.0505199 0.00119436 5.2 -0.05053 0.00119518 5.35 -0.0505401 0.001196 5.5
-0.0505502 0.00119683 5.65 -0.0505577 0.00119678 5.8 -0.0505681 0.00119776 5.95 -0.0505785
0.00119875 6.1 -0.0505889 0.00119973 6.25 -0.0505994 0.00120072 6.4 -0.0506068 0.00120064
6.55 -0.0506174 0.00120176 6.7 -0.050628 0.00120288 6.85 -0.0506386 0.001204 7
-0.0506493 0.00120513 7.15 -0.0506567 0.00120503 7.3 -0.0506674 0.00120626 7.45 -0.0506782
0.00120749 7.6 -0.0506889 0.00120872 7.75 -0.0506997 0.00120995 7.9 -0.050707 0.00120985
8.05 -0.0507179 0.00121116 8.2 -0.0507288 0.00121248 8.35 -0.0507396 0.0012138 8.5
-0.0507505 0.00121513 8.65 -0.0507578 0.00121501 8.8 -0.0507687 0.00121641 8.95 -0.0507797
0.00121781 9.1 -0.0507906 0.00121921 9.25 -0.0508016 0.00122061 9.4 -0.0508088 0.00122048
9.55 -0.0508658 0.00122258 9.7 -0.050974 0.00122541 9.85 -0.0511335 0.00122896 10
-0.0513442 0.00123324 -1.001 -0.05 0.0537316 -0.900807 -0.0501059 0.0535766 -0.800614 -0.0502121
0.0533945 -0.700421 -0.0503418 0.0531785 -0.600229 -0.0505024 0.0529268 -0.500035 -0.0506939 0.0526395
-0.425004 -0.0509421 0.0524168 -0.349973 -0.0512797 0.0521268 -0.274943 -0.0516646 0.0518578 -0.199912
-0.0520832 0.0516311 -0.124879 -0.0524862 0.0514869 -0.0498864 -0.0527527 0.0515235 0.0251064 -0.0529731
0.0516891 0.100099 -0.0531886 0.0519233 0.175092 -0.0534135 0.0522057 0.250087 -0.0536335 0.0525232
0.400077 -0.0540199 0.0531589 0.550067 -0.0544038 0.0536739 0.700057 -0.0547464 0.0541401 0.850047
-0.0550476 0.0545574 1.00003 -0.0553156 0.054925 1.14675 -0.0556833 0.0552031 1.29346 -0.0560196
0.0554627 1.44018 -0.0563531 0.0556886 1.58689 -0.0566841 0.0558809 1.7042 -0.0569467 0.0560076
1.71336 -0.0569679 0.0560161 1.72253 -0.0569893 0.0560246 1.73169 -0.0570108 0.0560329 1.74085
-0.0570324 0.0560412 1.75002 -0.0570541 0.0560494 1.90002 -0.0574109 0.0561827 2.05002 -0.0577633
0.0562986 2.20001 -0.0581119 0.0563969 2.35001 -0.0584567 0.0564776 2.50001 -0.0587977 0.0565407
2.65001 -0.0591438 0.0565926 2.80001 -0.0594896 0.0566378 2.95001 -0.0598346 0.0566753 3.10001
-0.0601788 0.0567052 3.25001 -0.0605221 0.0567273 3.40001 -0.0608663 0.0567444 3.55001 -0.061212
0.0567608 3.70001 -0.0615561 0.0567751 3.85001 -0.0618988 0.0567874 4.00001 -0.06224 0.0567977
4.15 -0.0625789 0.0568055 4.3 -0.0629216 0.0568144 4.45 -0.0632629 0.0568225 4.6
-0.0636027 0.0568298 4.75 -0.063941 0.0568364 4.9 -0.0642744 0.0568407 5.05 -0.0646132
0.0568469 5.2 -0.0649507 0.0568528 5.35 -0.0652867 0.0568583 5.5 -0.0656215 0.0568633
5.65 -0.0659493 0.0568658 5.8 -0.0662837 0.0568709 5.95 -0.0666169 0.0568757 6.1
-0.0669488 0.0568802 6.25 -0.0672794 0.0568846 6.4 -0.0676021 0.056886 6.55 -0.067932
0.0568903 6.7 -0.0682606 0.0568945 6.85 -0.0685881 0.0568986 7 -0.0689143 0.0569025
7.15 -0.0692318 0.0569031 7.3 -0.069557 0.0569071 7.45 -0.0698811 0.0569109 7.6
-0.070204 0.0569147 7.75 -0.0705256 0.0569183 7.9 -0.070838 0.0569184 8.05 -0.0711585
0.0569221 8.2 -0.0714779 0.0569259 8.35 -0.071796 0.0569295 8.5 -0.0721131 0.0569332
8.65 -0.0724204 0.0569332 8.8 -0.0727362 0.0569369 8.95 -0.0730507 0.0569406 9.1
-0.0733641 0.0569441 9.25 -0.0736763 0.0569475 9.4 -0.0739784 0.056947 9.55 -0.0742897
0.0569505 9.7 -0.0746004 0.056954 9.85 -0.0749106 0.0569574 10 -0.0752203 0.0569608
-1.001 -0.05 0.106363 -0.900818 -0.0500778 0.106138 -0.800636 -0.0501534 0.105866 -0.700455
-0.0502557 0.105547 -0.600274 -0.0504281 0.105005 -0.50009 -0.0506703 0.104244 -0.424996 -0.0509574
0.103658 -0.349901 -0.0513058 0.103052 -0.274807 -0.0516584 0.102515 -0.199711 -0.0519566 0.102085
-0.124607 -0.052299 0.101982 -0.0496047 -0.052547 0.102095 0.0253974 -0.0527401 0.102324 0.100399
-0.0529203 0.102636 0.175401 -0.0531208 0.103033 0.250411 -0.0533416 0.103514 0.400346 -0.0537482
0.104514 0.550283 -0.0541532 0.105387 0.70022 -0.0545192 0.106171 0.850157 -0.0548546 0.106789
1.00009 -0.0551589 0.107239 1.15007 -0.0555988 0.107504 1.30006 -0.0558948 0.107801 1.45005
-0.0561399 0.108077 1.60003 -0.056379 0.10832 1.75002 -0.0566123 0.108531 1.90002 -0.0569193
0.108676 2.05002 -0.0571631 0.108831 2.20001 -0.0574011 0.10897 2.35001 -0.0576367 0.109092
2.50001 -0.0578697 0.109197 2.65001 -0.058159 0.109267 2.80001 -0.0584065 0.109334 2.95001
-0.0586527 0.109395 3.10001 -0.0588983 0.109447 3.25001 -0.0591431 0.109492 3.40001 -0.0594308
0.109527 3.55001 -0.0596821 0.10956 3.70001 -0.0599316 0.109592 3.85001 -0.0601795 0.109621
4 -0.0604258 0.109648 4.15 -0.0607074 0.109674 4.3 -0.0609587 0.109696 4.45
-0.0612081 0.109716 4.6 -0.0614561 0.109736 4.75 -0.0617024 0.109755 4.9 -0.0619776
0.109778 5.05 -0.0622269 0.109793 5.2 -0.0624746 0.109808 5.35 -0.0627209 0.109822
5.5 -0.0629657 0.109836 5.65 -0.0632344 0.109857 5.8 -0.0634812 0.109868 5.95
-0.0637265 0.109879 6.1 -0.0639706 0.109889 6.25 -0.0642133 0.1099 6.4 -0.064476
0.109919 6.55 -0.0647199 0.109927 6.7 -0.0649625 0.109935 6.85 -0.0652038 0.109942
7 -0.0654439 0.109949 7.15 -0.0657007 0.109968 7.3 -0.0659415 0.109974 7.45
-0.066181 0.109979 7.6 -0.0664193 0.109984 7.75 -0.0666564 0.109989 7.9 -0.0669076
0.110007 8.05 -0.067145 0.110011 8.2 -0.0673812 0.110014 8.35 -0.0676163 0.110018
8.5 -0.0678502 0.110021 8.65 -0.068096 0.110039 8.8 -0.0683299 0.110042 8.95
-0.0685625 0.110044 9.1 -0.068794 0.110046 9.25 -0.0690243 0.110049 9.4 -0.0692644
0.110065 9.55 -0.069495 0.110066 9.7 -0.069725 0.110067 9.85 -0.0699546 0.110068
10 -0.0701836 0.110069 -1.001 -0.05 0.158995 -0.900796 -0.0500883 0.15877 -0.800593
-0.0501926 0.158425 -0.700392 -0.0503539 0.157689 -0.600196 -0.0505852 0.156477 -0.499992 -0.0508781
0.154638 -0.42472 -0.051485 0.153035 -0.349437 -0.0519522 0.152114 -0.274149 -0.0523485 0.15155
-0.19886 -0.0527429 0.151256 -0.123699 -0.0530596 0.151309 -0.0487805 -0.053182 0.15147 0.0261371
-0.0532598 0.15195 0.101053 -0.0533989 0.152655 0.175968 -0.0535649 0.153453 0.250944 -0.0537182
0.154282 0.400783 -0.0539287 0.155704 0.550624 -0.0544337 0.156882 0.700468 -0.0549043 0.157636
0.850313 -0.055301 0.158234 1.00014 -0.0556666 0.158665 1.15012 -0.0561685 0.158911 1.30009
-0.056526 0.159188 1.45007 -0.0567903 0.159457 1.60005 -0.0569779 0.159711 1.75002 -0.0571596
0.159933 1.90002 -0.0574162 0.160088 2.05002 -0.057609 0.160254 2.20002 -0.0577897 0.160406
2.35001 -0.0579617 0.160543 2.50001 -0.0581313 0.160662 2.65001 -0.0583577 0.160746 2.80001
-0.058542 0.160828 2.95001 -0.0587241 0.160903 3.10001 -0.0589045 0.160972 3.25001 -0.0590843
0.161032 3.40001 -0.0593071 0.161083 3.55001 -0.0594936 0.161131 3.70001 -0.0596774 0.161179
3.85001 -0.0598589 0.161225 4 -0.0600389 0.161269 4.15 -0.060254 0.161311 4.3
-0.060439 0.161349 4.45 -0.0606215 0.161387 4.6 -0.0608018 0.161423 4.75 -0.0609806
0.16146 4.9 -0.0611879 0.161499 5.05 -0.0613698 0.161531 5.2 -0.0615494 0.161563
5.35 -0.0617271 0.161595 5.5 -0.0619034 0.161626 5.65 -0.0621032 0.161664 5.8
-0.0622815 0.161692 5.95 -0.0624578 0.16172 6.1 -0.0626324 0.161748 6.25 -0.0628059
0.161775 6.4 -0.0629988 0.161812 6.55 -0.0631733 0.161837 6.7 -0.0633461 0.161862
6.85 -0.0635174 0.161886 7 -0.0636874 0.161911 7.15 -0.0638737 0.161946 7.3
-0.0640445 0.161969 7.45 -0.0642136 0.161992 7.6 -0.0643812 0.162014 7.75 -0.0645477
0.162036 7.9 -0.0647278 0.16207 8.05 -0.0648947 0.162091 8.2 -0.06506 0.162112
8.35 -0.065224 0.162132 8.5 -0.0653869 0.162153 8.65 -0.0655611 0.162187 8.8
-0.065724 0.162207 8.95 -0.0658853 0.162226 9.1 -0.0660452 0.162245 9.25 -0.066204
0.162264 9.4 -0.066372 0.162297 9.55 -0.0665311 0.162314 9.7 -0.0666893 0.162332
9.85 -0.0668467 0.162349 10 -0.0670038 0.162366 -1.001 -0.05 0.211626 -0.947632
-0.0500805 0.211469 -0.894265 -0.0501656 0.211279 -0.840898 -0.0502552 0.211055 -0.787531 -0.0503894
0.210764 -0.724312 -0.0506332 0.210286 -0.679436 -0.0509108 0.209635 -0.634563 -0.0512456 0.208756
-0.589693 -0.0515844 0.20774 -0.544827 -0.051928 0.206587 -0.499928 -0.052278 0.205293 -0.469444
-0.0525718 0.20424 -0.438962 -0.0528757 0.203124 -0.408476 -0.0531642 0.202134 -0.377986 -0.0534383
0.201266 -0.329843 -0.0538559 0.200029 -0.288834 -0.0541957 0.19912 -0.247821 -0.0545352 0.198427
-0.206805 -0.0548789 0.198046 -0.165786 -0.0551873 0.197954 -0.124884 -0.0554209 0.198126 -0.0496123
-0.0557266 0.198835 0.0256572 -0.0558633 0.199782 0.100922 -0.0559718 0.201063 0.176185 -0.0561138
0.202423 0.251487 -0.0562489 0.203577 0.252059 -0.0562498 0.203584 0.252631 -0.0562506 0.203592
0.253203 -0.0562515 0.203599 0.253775 -0.0562524 0.203607 0.254352 -0.0562532 0.203614 0.328536
-0.0563655 0.204583 0.402721 -0.0564798 0.205427 0.476908 -0.0565961 0.206144 0.551095 -0.0567412
[...]
POINT_DATA 2590
FIELD attributes 4
age 1 2590 float
0 0.00501121 0.0100224 0.0150336 0.0200448 0.0250561 0.0288056 0.0325533 0.036301 0.0400488 0.0437965
0.0475449 0.0512906 0.0550362 0.0587817 0.0625272 0.070024 0.0775229 0.0850219 0.0925208 0.10002
0.10752 0.115019 0.122519 0.130019 0.137519 0.145019 0.152519 0.160019 0.167518 0.175018
0.182518 0.190018 0.197517 0.205017 0.212517 0.220017 0.227516 0.235016 0.242516 0.250015
0.257515 0.265015 0.272515 0.280014 0.287514 0.295014 0.302514 0.310014 0.317513 0.325013
0.332513 0.340013 0.347512 0.355012 0.362512 0.370012 0.377512 0.385011 0.392511 0.400011
0.407511 0.415011 0.42251 0.43001 0.43751 0.44501 0.452509 0.460009 0.467509 0.475009
0.482509 0.490009 0.497508 0.505008 0.512508 0.520008 0.527507 0.535005 0.542503 0.55
0 0.00502605 0.0100534 0.0150748 0.020088 0.0250931 0.0288322 0.0325654 0.0362919 0.0400115
0.0437249 0.0474311 0.0511303 0.0548277 0.058525 0.0622241 0.0696348 0.0770707 0.0845214 0.0919869
0.0994671 0.106797 0.114128 0.12146 0.128794 0.134658 0.135117 0.135575 0.136033 0.136491
0.136949 0.14445 0.15195 0.159449 0.166948 0.174446 0.181945 0.189442 0.196939 0.204436
0.211933 0.21943 0.226927 0.234424 0.241921 0.249418 0.256916 0.264414 0.271911 0.279409
0.286907 0.294405 0.301903 0.309401 0.316899 0.324397 0.331896 0.339395 0.346893 0.354392
0.361891 0.36939 0.376889 0.384388 0.391887 0.399386 0.406886 0.414386 0.421885 0.429385
0.436884 0.444385 0.451885 0.459385 0.466885 0.474385 0.481886 0.489387 0.496887 0.504388
0.511889 0.51939 0.526891 0.534392 0.541893 0.549394 0 0.00502804 0.0100579 0.015082
0.0200995 0.0251106 0.0288577 0.0325977 0.0363284 0.0400543 0.0437704 0.0474751 0.0511741 0.0548719
0.0585687 0.0622652 0.0696634 0.0770887 0.0845322 0.0919977 0.099485 0.106988 0.114492 0.122
0.129508 0.137018 0.144533 0.152042 0.15955 0.167058 0.174565 0.182077 0.189583 0.197089
0.204594 0.212099 0.219611 0.227116 0.234621 0.242126 0.249631 0.257143 0.264649 0.272154
0.27966 0.287165 0.294678 0.302184 0.30969 0.317196 0.324702 0.332215 0.339721 0.347227
0.354734 0.36224 0.369754 0.37726 0.384767 0.392273 0.39978 0.407294 0.414801 0.422308
0.429815 0.437322 0.444837 0.452344 0.459852 0.467359 0.474867 0.482382 0.48989 0.497398
0.504905 0.512413 0.519929 0.527437 0.534945 0.542454 0.549962 0 0.00503014 0.0100663
0.0150996 0.0201271 0.0251497 0.0289155 0.0326694 0.0364113 0.0401429 0.0438577 0.0475527 0.0512422
0.0549306 0.0586182 0.0623094 0.0696964 0.0771197 0.0845736 0.0920441 0.0995357 0.107048 0.114561
0.12208 0.129602 0.137125 0.144655 0.152178 0.159701 0.167224 0.174746 0.182274 0.189795
0.197316 0.204836 0.212356 0.219883 0.227403 0.234924 0.242444 0.249964 0.257492 0.265012
0.272533 0.280054 0.287575 0.295103 0.302624 0.310145 0.317666 0.325187 0.332716 0.340237
0.347759 0.35528 0.362802 0.370331 0.377853 0.385374 0.392896 0.400418 0.407948 0.41547
0.422992 0.430515 0.438037 0.445567 0.45309 0.460612 0.468135 0.475658 0.483188 0.490711
0.498234 0.505757 0.513281 0.520811 0.528335 0.535858 0.543382 0.550905 0 0.00268271
0.00536712 0.0080532 0.0107387 0.0139177 0.016173 0.0184278 0.020682 0.0229353 0.0251895 0.0267177
0.0282438 0.0297669 0.0312871 0.0336819 0.035714 0.0377404 0.0397613 0.0417766 0.0437806 0.0474593
0.0511394 0.0548207 0.0585085 0.0622091 0.0622373 0.0622655 0.0622937 0.0623218 0.0623503 0.0660047
0.069669 0.0733433 0.0770278 0.0807221 0.0813113 0.0819005 0.0824897 0.083079 0.0836539 0.0868139
0.0899765 0.0931417 0.0963095 0.0994794 0.107 0.114522 0.122049 0.129581 0.137117 0.144661
0.152198 0.159734 0.167271 0.174808 0.18235 0.189886 0.197421 0.204956 0.212491 0.220033
0.227567 0.235102 0.242637 0.250172 0.257714 0.265249 0.272785 0.28032 0.287855 0.295398
0.302934 0.310469 0.318005 0.325541 0.333084 0.34062 0.348156 0.355692 0.363229 0.370772
0.378309 0.385845 0.393382 0.400919 0.408463 0.415999 0.423536 0.431073 0.43861 0.446155
0.453692 0.46123 0.468767 0.476305 0.483849 0.491387 0.498925 0.506463 0.514001 0.521546
0.529084 0.536622 0.54416 0.551699 0 0.00126445 0.00252927 0.00379478 0.00506109 0.00632822
0.0101158 0.0139116 0.0177191 0.0215332 0.0253298 0.0269125 0.028485 0.0300507 0.0316092 0.0329968
0.0333239 0.0336506 0.033977 0.0343032 0.0346293 0.0364575 0.0382787 0.0400908 0.0418978 0.0436953
0.0454958 0.0473009 0.049118 0.05094 0.0527662 0.0529228 0.0530795 0.0532361 0.0533928 0.0535575
0.0552305 0.0569063 0.0585848 0.0602662 0.0619502 0.0656459 0.0693584 0.073089 0.0768304 0.0805808
0.0843444 0.0881071 0.0918706 0.0956367 0.0994052 0.106941 0.114479 0.122021 0.129567 0.137117
0.144683 0.152236 0.159789 0.167342 0.174894 0.182455 0.190007 0.197558 0.20511 0.212661
0.220219 0.22777 0.235321 0.242872 0.250424 0.257982 0.265534 0.273085 0.280637 0.288188
0.295747 0.303299 0.310851 0.318403 0.325955 0.333514 0.341066 0.348618 0.356171 0.363723
0.371283 0.378835 0.386388 0.39394 0.401493 0.409053 0.416606 0.424159 0.431711 0.439264
0.446825 0.454378 0.461931 0.469484 0.477038 0.484599 0.492152 0.499706 0.507259 0.514813
0.522374 0.529928 0.537481 0.545035 0.552589 0 0.00126545 0.00253142 0.0037979 0.00506489
0.00633243 0.00822682 0.0101236 0.0120228 0.0139249 0.0158291 0.0177465 0.0196689 0.0215922 0.0235187
0.0254575 0.0264286 0.0273971 0.0283611 0.0293208 0.0302802 0.0307559 0.0312301 0.0317021 0.0321721
0.0326848 0.0331403 0.0335938 0.0340452 0.0344948 0.0349417 0.0358521 0.0367593 0.0376623 0.0385612
0.0394511 0.0403403 0.041228 0.042115 0.0430016 0.0438889 0.0452438 0.0466056 0.0479744 0.0493253
0.0528837 0.0547126 0.0565552 0.0584092 0.0602698 0.0621313 0.0640026 0.0658751 0.0677498 0.0696271
0.0715084 0.0733971 0.0752803 0.0771597 0.0790409 0.0809273 0.0840423 0.0871613 0.090282 0.0934042
0.0960494 0.0968236 0.0975981 0.0983726 0.0991474 0.0999222 0.107516 0.115111 0.122711 0.130314
0.137921 0.145553 0.15316 0.160763 0.168365 0.175967 0.183588 0.191187 0.198785 0.206383
0.213981 0.221597 0.229195 0.236791 0.244387 0.251984 0.259598 0.267195 0.27479 0.282386
0.289982 0.297596 0.305192 0.312787 0.320382 0.327978 0.33559 0.343186 0.350781 0.358376
0.365971 0.373582 0.381177 0.388772 0.396366 0.403961 0.411571 0.419166 0.42676 0.434354
0.441949 0.449557 0.457151 0.464745 0.472339 0.479934 0.487541 0.495135 0.502728 0.510322
0.517916 0.525521 0.533115 0.540708 0.548301 0.555895 0 0.00126279 0.00252626 0.00379076
0.00505644 0.00632329 0.00823333 0.0101454 0.0120611 0.0139803 0.0159047 0.017822 0.0197523 0.0216953
0.0236512 0.0256293 0.0266293 0.0276301 0.0286313 0.0296317 0.030644 0.0308914 0.0311388 0.0313859
0.0316309 0.0318207 0.0325715 0.0333098 0.0340352 0.034747 0.0354509 0.0358981 0.0363436 0.0367876
0.0372301 0.0376666 0.0381041 0.0385388 0.0389709 0.0394024 0.0398313 0.0402632 0.0406951 0.0411271
0.0415597 0.0419949 0.0424303 0.0428651 0.0433002 0.0437362 0.0441745 0.0450514 0.0459376 0.0468341
0.0477423 0.0486677 0.0494273 0.0501855 0.0509461 0.0517103 0.0526553 0.0527963 0.0529373 0.0530784
0.0532195 0.0533608 0.054315 0.0552682 0.0562234 0.0571808 0.0581404 0.0591092 0.060077 0.0610458
0.0620178 0.0629914 0.0649606 0.0669245 0.0688829 0.0708456 0.0727917 0.0747232 0.07667 0.0786323
0.0805985 0.082569 0.0865294 0.0904812 0.0944069 0.0983179 0.102232 0.110059 0.117853 0.125576
0.133242 0.14091 0.148608 0.156285 0.163956 0.171623 0.179289 0.18697 0.194634 0.202295
0.209955 0.217615 0.225289 0.232948 0.240605 0.248261 0.255918 0.263587 0.271243 0.278898
0.286552 0.294206 0.301872 0.309525 0.317178 0.32483 0.332482 0.340144 0.347796 0.355446
0.363096 0.370746 0.378405 0.386054 0.393703 0.40135 0.408998 0.416654 0.424302 0.431948
0.439594 0.44724 0.454893 0.462539 0.470183 0.477827 0.485471 0.493122 0.500766 0.508408
0.51605 0.523692 0.531339 0.538981 0.546622 0.554263 0.561903 0 0.00126442 0.00252948
0.0037952 0.00506156 0.00632917 0.00824623 0.0101657 0.0120885 0.0140175 0.0159587 0.0169288 0.0179018
0.0188779 0.0198572 0.0208397 0.0218274 0.0228231 0.0238279 0.0248416 0.0258657 0.0263834 0.0269028
0.0274258 0.0279525 0.0284855 0.028776 0.0290678 0.0293619 0.0296588 0.0297567 0.0300567 0.0303581
0.0306603 0.0309623 0.0312726 0.0313694 0.0314661 0.031563 0.0316601 0.031731 0.0317661 0.0318013
0.0318364 0.0318715 0.0319049 0.0320683 0.0322315 0.0323945 0.0325574 0.0327216 0.0329005 0.033079
0.0332571 0.0334322 0.0335614 0.0336669 0.0337719 0.0338763 0.0339797 0.0340847 0.0341951 0.0343039
0.0344114 0.0345178 0.0346048 0.0346594 0.0347138 0.0347678 0.0348215 0.034874 0.0349715 0.0350687
0.0351653 0.0352615 0.0353556 0.0354778 0.0355986 0.0357179 0.0358361 0.0360285 0.036129 0.0362291
0.0363288 0.0364284 0.0365181 0.036605 0.0366921 0.0367791 0.0368661 0.0370243 0.0371461 0.0372677
0.0373892 0.0375104 0.03763 0.0378488 0.0380661 0.0382834 0.0385013 0.0387156 0.0389335 0.0391509
0.0393686 0.0395866 0.0398045 0.0400252 0.0402443 0.0404636 0.0406832 0.0409036 0.0411237 0.0413433
0.0415632 0.0417839 0.042007 0.0422314 0.042454 0.0426766 0.0428999 0.0431241 0.0434602 0.0437979
0.0441412 0.0444903 0.0446546 0.0448137 0.0449733 0.0451331 0.0452933 0.0454547 0.0459414 0.0464207
0.0469002 0.0473753 0.0478714 0.0483883 0.0488946 0.0494015 0.0499132 0.0504321 0.0505072 0.0505823
0.0506576 0.050733 0.0508068 0.0518095 0.0528554 0.0539464 0.0549982 0.056062 0.0572658 0.0584471
0.0596294 0.0608178 0.0620062 0.062427 0.0628467 0.0632662 0.0636859 0.0641622 0.0649467 0.0657236
0.0664972 0.0672728 0.0680473 0.0681939 0.0683402 0.0684859 0.0686312 0.0687751 0.0698167 0.0708555
0.0718925 0.0729275 0.0739578 0.075111 0.0762852 0.0774631 0.0786424 0.0798242 0.0813362 0.0828494
0.0843694 0.0858925 0.0878545 0.0885508 0.0892444 0.0899352 0.0906233 0.0913083 0.0958172 0.100301
0.104711 0.10903 0.113218 0.121393 0.129504 0.137543 0.14551 0.153396 0.161156 0.168917
0.176676 0.184431 0.192184 0.199933 0.207682 0.215429 0.223174 0.230918 0.237939 0.244961
0.251981 0.259 0.266139 0.266833 0.267527 0.268221 0.268914 0.269608 0.277342 0.285077
0.292812 0.300546 0.308281 0.316007 0.323742 0.331476 0.33921 0.346945 0.354664 0.362398
0.370132 0.377866 0.3856 0.393313 0.401046 0.408779 0.416513 0.424246 0.431953 0.439685
0.447417 0.45515 0.462882 0.470583 0.478315 0.486046 0.493778 0.501509 0.509205 0.516935
0.524665 0.532395 0.540125 0.547815 0.555543 0.563271 0.570999 0.578728 0 0.00125411
0.00250917 0.00376554 0.00502336 0.00628274 0.00821405 0.0101481 0.0120849 0.0140287 0.0159869 0.0169596
0.0179362 0.0189168 0.0199015 0.0208903 0.0218847 0.02289 0.0239069 0.0249356 0.0259773 0.0265059
0.0270377 0.0275763 0.0281217 0.0286759 0.0292414 0.0298147 0.0304009 0.0310011 0.0316279 0.0319468
0.0322656 0.0325851 0.0329056 0.0332406 0.0333124 0.0333842 0.033456 0.0335279 0.0335863 0.033662
0.0337362 0.0338096 0.0338824 0.0339439 0.0341153 0.0342835 0.0344485 0.0346099 0.0347768 0.0349193
0.0350591 0.0351963 0.0353301 0.0354494 0.0355698 0.0356897 0.035809 0.0359267 0.0360386 0.0361559
0.03627 0.0363812 0.0364919 0.0366378 0.0367452 0.0368524 0.0369594 0.0370662 0.0371642 0.0373625
0.0375608 0.0377627 0.0379677 0.0383934 0.0386269 0.0388604 0.0390918 0.0393211 0.0395457 0.0400096
0.0404672 0.040921 0.0413715 0.0418169 0.0422737 0.0427154 0.0431605 0.0436086 0.0440596 0.0445323
0.044999 0.0454772 0.04596 0.0464507 0.0473292 0.0482285 0.0491423 0.0500369 0.0517767 0.0528969
0.0540199 0.0551663 0.0563326 0.057531 0.0587855 0.0600128 0.0612235 0.0624435 0.0636701 0.0645664
0.0654488 0.0663306 0.067207 0.0683887 0.0686819 0.0689752 0.0692688 0.069563 0.0698575 0.0706423
0.071429 0.0722149 0.0730021 0.0739752 0.0743922 0.074809 0.0752255 0.0756408 0.0760546 0.0772933
0.0785366 0.0797874 0.081039 0.0822901 0.0847747 0.087263 0.0897215 0.0921372 0.0945291 0.0993556
0.104137 0.108778 0.113284 0.117637 0.121708 0.125763 0.129801 0.133821 0.139136 0.143104
0.14703 0.150915 0.15476 0.158564 0.166325 0.174092 0.181858 0.189623 0.197386 0.205131
0.212893 0.220655 0.228416 0.236177 0.243911 0.25167 0.259429 0.267188 0.274948 0.282673
0.290431 0.298189 0.305947 0.313705 0.321423 0.32918 0.336937 0.344695 0.352452 0.360164
0.367919 0.375675 0.383432 0.391188 0.398893 0.406648 0.414402 0.422157 0.429912 0.437612
0.445365 0.453118 0.460871 0.468625 0.476319 0.48407 0.491822 0.499573 0.507325 0.515014
0.522764 0.530514 0.538263 0.546013 0.553697 0.561443 0.56919 0.576936 0.584684 0
0.00125903 0.00251875 0.00377914 0.00504095 0.00630441 0.0082331 0.0101647 0.0120993 0.0140412 0.0159973
0.0169702 0.0179472 0.0189283 0.0199136 0.0209032 0.0218976 0.0229027 0.0239194 0.024948 0.0259895
0.0265185 0.0270503 0.027588 0.0281323 0.028686 0.029249 0.0298196 0.0303997 0.0309924 0.0316146
0.0319307 0.0322475 0.0325647 0.0328819 0.0332116 0.0334493 0.0336857 0.03392 0.0341484 0.0342451
0.0343489 0.0344516 0.0345532 0.0346537 0.0347569 0.034958 0.0351523 0.03534 0.0355218 0.0356763
0.0357539 0.0358312 0.0359078 0.0359836 0.0360641 0.036065 0.0360659 0.0360667 0.0360676 0.0360685
0.036213 0.0363561 0.0364979 0.0366383 0.0368443 0.0369203 0.0369962 0.037072 0.0371478 0.0372196
0.0376775 0.0381406 0.0386171 0.0391016 0.0395163 0.0399784 0.0404295 0.0408793 0.0413313 0.0417915
0.042268 0.0427345 0.0431977 0.0436632 0.0441383 0.0446312 0.0451145 0.0455923 0.0460754 0.0465723
0.0476067 0.0486633 0.0497315 0.0508193 0.0515717 0.0516461 0.0517203 0.0517946 0.0518687 0.0519429
0.0530719 0.0542257 0.0554071 0.0566116 0.0578364 0.0591101 0.0603605 0.0615913 0.0628382 0.0640787
0.0647025 0.0653157 0.0659263 0.0665354 0.0671477 0.067774 0.0683905 0.0689977 0.0696068 0.0702215
0.0714723 0.0727328 0.0739904 0.075243 0.0764851 0.0772403 0.0779884 0.0787376 0.0794886 0.0803268
0.0807794 0.0812321 0.0816852 0.0821393 0.0825828 0.0826162 0.0826497 0.0826831 0.0827165 0.0827499
0.0852605 0.087756 0.0902366 0.0926587 0.0950516 0.0998141 0.104528 0.10913 0.113621 0.117969
0.124913 0.131767 0.138501 0.14512 0.159233 0.162934 0.166635 0.170335 0.174035 0.177812
0.181845 0.185878 0.189911 0.193943 0.197975 0.205714 0.213458 0.221201 0.228944 0.236686
0.244414 0.252155 0.259896 0.267637 0.275378 0.283099 0.290839 0.298579 0.306319 0.314059
0.321773 0.329512 0.337252 0.344991 0.352731 0.360438 0.368176 0.375915 0.383654 0.391393
0.399094 0.406831 0.414569 0.422307 0.430045 0.43774 0.445476 0.453213 0.46095 0.468686
0.476376 0.484111 0.491846 0.499582 0.507317 0.515002 0.522736 0.53047 0.538203 0.545937
0.553616 0.561347 0.569078 0.57681 0.584541 0 0.00127992 0.00256048 0.0038423 0.0051256
0.00641039 0.00831682 0.0102258 0.0121375 0.0140557 0.015986 0.016958 0.0179331 0.0189115 0.0198934
0.0208789 0.021873 0.0228762 0.0238893 0.0249123 0.0259475 0.0263892 0.0268326 0.0272794 0.0277296
0.0278534 0.0280029 0.0281527 0.0283026 0.0284526 0.0286029 0.0291463 0.0296939 0.0302488 0.0308125
0.0313971 0.0314718 0.0315466 0.0316212 0.031696 0.0317609 0.0319784 0.0321959 0.0324132 0.0326304
0.0328511 0.0329308 0.0330105 0.03309 0.0331694 0.0332382 0.0334493 0.0336595 0.0338687 0.0340746
0.034287 0.0343492 0.034411 0.0344724 0.0345335 0.0345864 0.0345917 0.0345971 0.0346024 0.0346077
0.034613 0.0348284 0.0350392 0.0352456 0.0354446 0.0356351 0.0356567 0.0356783 0.0356999 0.0357214
0.0357434 0.0358452 0.0359461 0.036046 0.0361472 0.0362917 0.0363854 0.0364785 0.036571 0.0366625
0.0367516 0.0368553 0.0369583 0.0370607 0.0371634 0.0373113 0.0374106 0.0375096 0.0376087 0.0377086
0.0378061 0.0380179 0.0382279 0.0384373 0.0386461 0.0388582 0.0390783 0.0392938 0.039505 0.0397163
0.0399302 0.0401464 0.0403609 0.0405744 0.0407885 0.0410052 0.0412263 0.0414439 0.0416602 0.0418769
0.0420945 0.0423134 0.0425307 0.0427479 0.0429655 0.0431844 0.0436296 0.0440752 0.0445239 0.0449761
0.0454365 0.0459154 0.0463824 0.0468412 0.047303 0.0477783 0.0482612 0.0487421 0.0492231 0.0497079
0.0502005 0.0512173 0.0522397 0.0532745 0.0543632 0.0554689 0.0558205 0.0561724 0.0565254 0.0568798
0.0572532 0.0580582 0.0588626 0.0596667 0.0604744 0.0612903 0.0624909 0.063668 0.064852 0.066051
0.067244 0.0684713 0.0696747 0.0708559 0.0720306 0.0731975 0.0736228 0.0740473 0.0744723 0.0748976
0.0753152 0.0756368 0.0759585 0.0762804 0.0766025 0.0769332 0.0773598 0.0777866 0.0782139 0.0786415
0.0790694 0.0814162 0.0837649 0.0861127 0.0884302 0.0907206 0.0952334 0.0997987 0.104269 0.108596
0.112815 0.121127 0.129409 0.137629 0.145675 0.153552 0.161294 0.169035 0.176773 0.184508
0.19224 0.199968 0.207695 0.215421 0.223146 0.230868 0.237193 0.243519 0.249843 0.256167
0.262493 0.263886 0.265279 0.266671 0.268064 0.269457 0.277171 0.284886 0.292601 0.300316
0.308032 0.315739 0.323453 0.331169 0.338884 0.346599 0.3543 0.362014 0.369729 0.377443
0.385158 0.392853 0.400567 0.408281 0.415995 0.42371 0.431399 0.439112 0.446826 0.454539
0.462253 0.469937 0.477649 0.485362 0.493074 0.500787 0.508467 0.516178 0.523889 0.531601
0.539312 0.546986 0.554696 0.562405 0.570115 0.577825 0 0.00127753 0.00255577 0.00383513
0.00511576 0.00639769 0.00829926 0.0102028 0.0121092 0.0140204 0.0159397 0.0169038 0.0178699 0.0188378
0.0198081 0.0207805 0.0217543 0.0227331 0.0237171 0.0247057 0.0256981 0.0266889 0.0276859 0.0286913
0.0296918 0.0307003 0.0307753 0.0308504 0.0309255 0.0310003 0.0310696 0.031992 0.0328949 0.0337773
0.0346386 0.0354972 0.0359452 0.0363908 0.0368344 0.0372769 0.0377139 0.0381525 0.0385885 0.0390238
0.0394583 0.039887 0.0403201 0.0407533 0.0411868 0.0416206 0.042055 0.0424912 0.0429263 0.0433622
0.0437991 0.0442379 0.045116 0.0460026 0.0468958 0.0477965 0.0487223 0.0496693 0.0506089 0.0515418
0.0524817 0.053431 0.0541553 0.0548849 0.0556167 0.0563502 0.0574721 0.0576348 0.0577976 0.0579606
0.0581236 0.0582868 0.0592705 0.0602537 0.0612373 0.0622206 0.0632029 0.0652031 0.0671901 0.0691666
0.0711525 0.0731359 0.0750944 0.0770792 0.0790787 0.0810823 0.0830877 0.0871001 0.0911296 0.0951272
0.0990798 0.103027 0.105874 0.108726 0.111586 0.114439 0.117795 0.12277 0.127718 0.132639
0.137532 0.142398 0.150108 0.157821 0.165532 0.17324 0.180945 0.188639 0.19634 0.204039
0.211737 0.219434 0.227121 0.234814 0.242507 0.250198 0.257888 0.265571 0.273259 0.280946
0.288632 0.296317 0.303996 0.311679 0.319361 0.327042 0.334723 0.342399 0.350077 0.357755
0.365432 0.373109 0.380781 0.388456 0.39613 0.403803 0.411475 0.419145 0.426816 0.434486
0.442155 0.449824 0.45749 0.465158 0.472824 0.48049 0.488156 0.495819 0.503483 0.511146
0.518809 0.526471 0.534131 0.541791 0.549451 0.557111 0.56477 0 0.00127409 0.0025488
0.00382396 0.00510035 0.00637797 0.00827387 0.0101719 0.0120722 0.0139756 0.015883 0.0177923 0.0197069
0.0216263 0.0235504 0.0254824 0.0264533 0.0274211 0.0283841 0.0293421 0.0299593 0.0309777 0.0319885
0.0329888 0.0339789 0.0349573 0.0358662 0.0367718 0.0376733 0.0385719 0.0394614 0.040352 0.0412411
0.0421291 0.0430162 0.0439025 0.0456796 0.0474741 0.0492831 0.0511018 0.0529369 0.0537981 0.0546605
0.055525 0.0563915 0.0577335 0.0586264 0.0595212 0.0604178 0.0613162 0.0622161 0.0640917 0.0659702
0.0678514 0.0697353 0.0716211 0.0735166 0.0754043 0.0772929 0.079183 0.0810741 0.0848701 0.0886652
0.0924648 0.0962689 0.100087 0.107786 0.115488 0.123145 0.130764 0.138399 0.146048 0.153694
0.161339 0.168983 0.176625 0.184271 0.191914 0.199555 0.207195 0.214833 0.222474 0.230113
0.23775 0.245386 0.253022 0.26066 0.268296 0.275931 0.283564 0.291197 0.298834 0.306467
0.314099 0.321731 0.329362 0.336995 0.344626 0.352257 0.359886 0.367515 0.375146 0.382775
0.390404 0.398031 0.405658 0.413287 0.420914 0.42854 0.436165 0.44379 0.451417 0.459042
0.466666 0.47429 0.481913 0.489538 0.497161 0.504783 0.512405 0.520026 0.527648 0.535269
0.54289 0.55051 0.558129 0 0.00127142 0.00254321 0.00381554 0.00508846 0.00636199 0.0101414
0.0139323 0.0177224 0.0215091 0.0252997 0.0257901 0.0262792 0.0267675 0.0272549 0.0276841 0.0290741
0.0304589 0.0318385 0.033213 0.034585 0.0364261 0.0382577 0.0400725 0.0418832 0.0436887 0.0455
0.0473086 0.0491186 0.0509373 0.0527673 0.0546035 0.0564412 0.0582816 0.060125 0.0619709 0.0656731
0.0693891 0.0731211 0.076868 0.0806186 0.084389 0.0881576 0.0919264 0.0956972 0.0994704 0.107
0.114529 0.122062 0.12961 0.137173 0.144752 0.152327 0.159904 0.167482 0.175058 0.182639