# vtk DataFile Version 2.0
sampleSurface
ASCII
DATASET POLYDATA
POINTS 2021 float
-0.500032 0 0.11501 -0.499951 3.38813e-21 0.0392727 -0.789037 8.47033e-21 0.120673 -0.500013 -1.35525e-20
0.193965 1.00003 0 0.0485099 1.00003 0 0.0478584 0.475202 0 0.0353615
0.250044 1.41878e-20 0.0305359 0.2506 -5.42101e-20 0.117067 0.251301 0 0.203885 0.364989
0 0.203772 1.75002 0 0.113255 1.75002 0 0.0564279 2.50001 6.89146e-18
0.059229 2.21354 0 0.250758 2.50001 0 0.252875 3.25001 -3.47927e-17 0.0598775
3.25001 -1.69407e-21 0.253888 4.00001 5.60566e-18 0.0599857 4 0 0.253986 4.75
-1.79088e-17 0.0599988 4.75 8.47033e-22 0.253998 5.5 -2.79246e-17 0.0599999 5.5 -4.23516e-22
0.253999 6.25 1.01187e-17 0.06 6.25 0 0.254 7 2.93732e-17 0.06
7 0 0.254 7.75 -2.65294e-17 0.06 7.75 0 0.254 8.5
1.8923e-17 0.06 8.5 0 0.254 9.25 -2.88552e-17 0.06 9.25 -5.29396e-23
0.254 10 -2.64698e-23 0.254 10 0 0.06 -4.24997 0 0.0599042
-5 0 0.0599861 -5 0 0.253986 -4.24997 0 0.253912 -3.49995
0 0.0593815 -3.49994 0 0.253441 -2.74993 0 0.0570188 -2.74991 0
0.251316 -1.99991 0 0.0492276 -1.99987 0 0.242776 -1.24992 -1.69407e-21 0.03
-1.24985 1.23328e-17 0.222327 -1.24989 3.38813e-21 0.125756 -0.874924 2.08116e-17 0.03 -0.874929
0 0.122356 -0.124951 -8.47033e-22 0.03 -0.499941 0 0.03 -0.124922 -8.47033e-22
0.0385291 1.00021 0 0.231242 0.625368 0 0.203537 0.25004 -2.11758e-22 0.03
1.75003 0 0.247334 1.92873 1.69407e-21 0.441438 2.50001 0 0.447397 3.25
-1.69407e-21 0.447898 4 0 0.447986 4.75 0 0.447997 5.5 -4.23516e-22
0.447999 6.25 4.23516e-22 0.447999 7 0 0.448 7.75 -1.05879e-22 0.448
8.5 0 0.448 9.25 0 0.448 10 -2.64698e-23 0.448 -5
-8.47033e-22 0.447985 -4.24997 0 0.447919 -3.49993 0 0.4475 -2.74988 0
0.445609 -1.9998 6.77626e-21 0.437758 -1.24969 1.61411e-17 0.417681 -1.24976 -6.77626e-21 0.31973
-0.875161 7.70461e-18 0.216228 -0.875403 0 0.312476 -0.499924 -8.74138e-19 0.250039 -0.312433
0 0.250037 -0.312436 0 0.200025 -0.499924 0 0.200026 0.250062 3.38813e-21
0.24921 0.250039 -1.69407e-21 0.250046 0.250032 0 0.300069 0.437526 3.05948e-18 0.300066
0.625026 0 0.30005 1.00072 -8.23994e-18 0.326497 1.00196 0 0.423 1.75013
0 0.439575 1.75013 1.77877e-20 0.448245 1.00135 0 0.537141 1.00002 0
0.61834 1.74999 2.71051e-20 0.633055 2.49999 -3.38813e-21 0.641448 3.25 0 0.641907
4 -1.69407e-21 0.641985 4.75 -8.47033e-22 0.641996 5.5 -4.23516e-22 0.641998 6.25
0 0.641999 7 0 0.641999 7.75 0 0.642 8.5 5.29396e-23
0.642 9.25 -5.29396e-23 0.642 10 0 0.642 -5 0 0.641985
-4.24997 -1.69407e-21 0.641926 -3.49993 0 0.641557 -2.74988 0 0.639897 -1.99989
6.77626e-21 0.63382 -1.25099 2.55465e-18 0.614606 -1.25 -2.71051e-20 0.515981 -0.878244 0
0.50789 -0.875961 2.71051e-20 0.459694 -0.875609 0 0.410432 -0.498432 0 0.400603
-0.498071 -1.70762e-18 0.413126 -0.450805 0 0.413349 -0.45095 0 0.400955 0.250009
1.89735e-19 0.412703 0.25 2.71051e-20 0.425212 0.296872 1.00289e-18 0.425187 0.343754 -2.71051e-20
0.425153 0.343763 0 0.400146 0.250006 0 0.400175 1.00162 1.41488e-17 0.520353
-2 4.23516e-22 0.820145 -2.09502 -2.11758e-22 0.830091 -2 0 0.829497 -1.25123
0 0.813251 -1.25126 0 0.713737 -1.25101 6.77626e-21 0.62198 1.00059 0
0.714169 1.00094 0 0.809205 1.75018 0 0.82775 2.5 0 0.835521
3.25 0 0.835917 4 -1.69407e-21 0.835986 4.75 -8.47033e-22 0.835996 5.5
0 0.835998 6.25 0 0.835999 7 0 0.835999 7.75 0
0.836 8.5 0 0.836 9.25 0 0.836 10 0 0.836
-5 -8.47033e-22 0.835986 -4.24997 0 0.835935 -3.49995 0 0.835616 -2.74991
0 0.83419 -0.970118 0 0.703382 -0.87455 0 0.699864 -0.874264 -2.71051e-20
0.649852 -0.874033 -2.71051e-20 0.599873 -0.49698 0 0.599585 -0.497345 -9.21572e-19 0.612046
-0.450014 0 0.611892 -0.44938 2.71051e-20 0.599454 -2.00002 0 0.84097 -1.84639
-3.38813e-21 1.02215 -1.25185 0 1.01276 -0.896512 -3.38813e-21 0.900668 -0.908183 6.77626e-21
0.801076 -0.904022 -1.86347e-20 1.00093 0.624925 0 0.799916 0.249931 0 0.799891
0.249978 0 0.899916 0.249997 0 0.999939 0.999987 0 0.999957 1.75061
-2.1684e-19 1.02409 2.50003 0 1.0296 3.25 -1.69407e-21 1.02993 4 0
1.02999 4.75 0 1.03 5.5 0 1.03 6.25 2.11758e-22 1.03
7 0 1.03 7.75 0 1.03 8.5 5.29396e-23 1.03 9.25
0 1.03 10 0 1.03 -5 0 1.02999 -4.24998 0
1.02994 -3.49996 -8.47033e-22 1.02968 -2.74996 0 1.02849 -2.00026 0 1.02458
-0.87482 0 0.799893 -0.87491 0 0.899919 -0.49993 0 0.799862 -0.499958
7.6233e-19 0.849889 -0.312476 0 0.849885 -0.312472 0 0.799853 -1.25001 8.04681e-21
1.19601 -0.499979 5.29396e-23 1.10737 -0.731886 2.11758e-22 1.19997 -0.499981 0 1.19997
-0.124987 0 0.999933 -0.477759 -5.29396e-23 0.999933 -0.487556 -1.45584e-22 1.09995 0.250008
0 1.19997 1 0 1.19997 1.7507 0 1.22203 2.50003 -1.35525e-20
1.22368 3.25 0 1.22394 4 0 1.22399 4.75 4.23516e-22 1.224
5.5 0 1.224 6.25 2.11758e-22 1.224 7 0 1.224 7.75
1.05879e-22 1.224 8.5 0 1.224 9.25 0 1.224 10 2.64698e-23
1.224 -5 4.23516e-22 1.22399 -4.24999 -4.23516e-22 1.22395 -3.49998 0 1.22374
-2.75001 0 1.22279 -2.00077 0 1.21965 -1.24997 4.23516e-22 1.19997 -0.499969
-5.29396e-23 0.999933 -0.874942 0 0.999936 -0.499979 -1.32349e-23 1.09995 -2.75001 0
1.36967 -3.18711 4.23516e-22 1.41751 -2.75001 4.23516e-22 1.4171 -2.00072 3.38813e-21 1.29692
-2.00065 0 1.41474 -1.25823 6.35275e-21 1.40014 -0.980416 0 1.39998 -0.499986
0 1.39998 0.250009 0 1.39998 1 0 1.39998 1.75054 0
1.41682 2.50002 -1.35525e-20 1.41776 3.25 0 1.41796 4 4.23516e-22 1.41799
4.75 0 1.418 5.5 0 1.418 6.25 0 1.418 7
0 1.418 7.75 0 1.418 8.5 0 1.418 9.25 0
1.418 10 0 1.418 -5 0 1.41799 -4.24999 0 1.41797
-3.49999 -4.23516e-22 1.41781 -1.24998 0 1.39998 -2.80392 1.32349e-23 1.61143 -2.75
-1.32349e-23 1.6114 -2.0003 0 1.60983 -1.25396 2.64698e-23 1.60004 -1.12789 2.64698e-23
1.59999 -0.49999 1.05879e-22 1.59999 0.250008 0 1.59999 1.00001 4.23516e-22 1.59999
1.75038 0 1.61122 2.50002 0 1.61184 3.25 -4.23516e-22 1.61197 4
-4.23516e-22 1.61199 4.75 0 1.612 5.5 0 1.612 6.25 0
1.612 7 0 1.612 7.75 5.29396e-23 1.612 8.5 2.64698e-23 1.612
9.25 -1.32349e-23 1.612 10 -1.32349e-23 1.612 -5 0 1.61199 -4.24999
0 1.61198 -3.49999 0 1.61187 -1.24999 0 1.59999 -2.75 -1.32349e-23
1.63714 -2.64195 -2.11758e-22 1.80559 -2.00012 -8.47033e-22 1.80492 -1.25741 0 1.80004
-1.19082 -7.94093e-23 1.8 -0.499992 1.05879e-22 1.79999 0.250006 2.11758e-22 1.79999 1
0 1.8 1.75023 0 1.80561 2.50001 3.38813e-21 1.80592 3.25 0
1.80599 4 0 1.806 4.75 2.11758e-22 1.806 5.5 0 1.806
6.25 0 1.806 7 0 1.806 7.75 0 1.806 8.5
2.64698e-23 1.806 9.25 0 1.806 10 0 1.806 -5 0
1.806 -4.25 -2.11758e-22 1.80599 -3.49999 0 1.80594 -2.75 -1.05879e-22 1.8057
-1.24999 0 1.8 -2 -4.76456e-22 1.98532 -1.20969 -1.65436e-23 2 -0.499993
0 2 0.250006 0 2 1 0 2 1.75 0
2 2.5 0 2 3.25 0 2 4 0 2
4.75 -1.05879e-22 2 5.5 0 2 6.25 0 2 7
5.29396e-23 2 7.75 0 2 8.5 0 2 9.25 0
2 10 -1.32349e-23 2 -5 2.21817e-18 2 -4.25 1.05879e-22 2
-3.49999 0 2 -2.74999 0 2 -1.99999 -5.29396e-23 2 -1.24999
3.30872e-24 2 0.0956945 -5.42101e-20 0.203879 0.0632748 0 0.203876 0.0625511 0
0.250042 -0.403589 6.77626e-21 0.40138 -0.405779 7.7927e-19 0.38799 -0.406379 -6.77626e-21 0.375196
-0.499567 -1.35525e-20 0.375265 0.250006 -6.50521e-19 0.375144 0.156247 0 0.375155 0.156237
9.41901e-19 0.400212 0.203129 0 0.400201 0.249796 0 0.59991 0.249852 -1.0842e-19
0.587433 0.202953 0 0.587417 0.202888 6.50521e-19 0.599901 0.625121 -6.77626e-21 0.499953
0.717439 6.77626e-21 0.504955 0.625095 6.77626e-21 0.475379 0.343596 1.0842e-19 0.599918 0.343639
0 0.574939 0.296781 0 0.574964 0.249926 0 0.574977 0.62499 -4.2826e-18
0.549927 0.624917 4.55365e-18 0.599925 0.203133 0 0.412725 -0.449046 0 0.587135
-0.496581 5.42101e-20 0.587161 0.625036 -9.32414e-18 0.40006 0.625067 1.13164e-18 0.450032 0.249704
0 0.624881 0.155871 0 0.599866 0.155839 1.95156e-18 0.624853 0.249886 1.35525e-20
0.749873 0.062411 0 0.749846 0.0624478 -4.26227e-18 0.799869 -0.312472 0 0.749804
-0.499901 -3.38813e-21 0.749824 -0.691227 0 0.30453 -0.499912 3.02221e-18 0.300065 -0.875784
-3.11708e-18 0.361353 -0.592465 -2.71051e-20 0.40036 -0.499854 0 0.350135 -0.687111 1.35525e-20
0.350117 -0.68656 -2.71051e-20 0.40021 0.437526 -1.35525e-20 0.400108 0.437522 6.77626e-21 0.350086
0.250015 -2.51399e-18 0.35011 0.625027 3.38813e-21 0.350064 -0.592287 0 0.425286 -0.498048
0 0.425444 -0.873902 5.42101e-18 0.54992 -0.496663 0 0.574746 -0.591532 0
0.574798 -0.591729 0 0.599734 -0.149108 0 0.406489 -0.149477 -5.29396e-23 0.403592
-0.149678 0 0.406489 -0.451876 -2.1684e-18 0.499977 -0.451579 0 0.487563 -0.498366
0 0.487552 -0.498515 -1.0842e-19 0.499993 0.437553 0 0.450075 0.437532 -6.07153e-18
0.425113 0.254621 -1.25361e-19 0.496697 0.26485 -5.42101e-20 0.498023 0.264831 0 0.496529
0.254636 -2.30393e-19 0.49668 0.570241 0 0.499932 0.437665 -2.71051e-20 0.474991 0.437859
-2.71051e-20 0.49988 0.437372 -1.0842e-19 0.599915 0.249722 3.25261e-19 0.649874 0.43732 -5.42101e-20
0.649899 0.624872 0 0.649914 0.624883 -3.95734e-18 0.699913 0.43734 6.83047e-18 0.699894
0.249817 0 0.699869 -0.592227 0 0.624743 -0.498071 -2.71051e-20 0.624658 -0.499769
6.77626e-21 0.69979 -0.687025 0 0.699824 -0.150854 -1.03677e-18 0.599678 -0.151059 -6.77626e-21
0.605522 -0.127339 6.77626e-21 0.605681 -0.127867 0 0.599582 -0.406139 -4.40457e-20 0.699754
-0.406113 0 0.674749 -0.499634 0 0.674774 -0.18433 -4.23516e-22 0.674527 -0.163626
-4.23516e-22 0.678958 -0.165125 0 0.674537 -0.171868 4.23516e-22 0.674524 -0.14924 3.34737e-19
0.400169 -0.125737 0 0.400165 -0.12551 0 0.393854 -0.149076 -2.11758e-22 0.393877
-0.499925 -2.61564e-18 0.325088 -0.406241 0 0.325087 -0.4062 0 0.300069 -0.124901
0 0.300062 -0.218633 -3.27294e-18 0.299673 -0.218596 1.35525e-20 0.324664 -0.124851 0
0.325085 -0.126061 7.86047e-19 0.406473 -0.0785222 1.30782e-18 0.400166 -0.126118 3.38813e-21 0.41275
-0.0785648 0 0.412729 0.240678 1.0842e-18 0.500153 0.252614 -2.1684e-19 0.498317 0.252386
1.0842e-19 0.496231 0.241035 0 0.496114 0.228892 -1.35525e-20 0.496204 0.228835 6.77626e-21
0.498715 0.229819 2.71051e-20 0.500074 0.25248 0 0.499935 0.240657 -1.6263e-19 0.500957
0.264863 0 0.500154 0.264689 0 0.500951 0.437443 0 0.549896 0.437406
[...]
POINT_DATA 2021
FIELD attributes 2
p 1 2021 float
2.01067 1.43904 2.37071 4.36397 0.0599075 0.0577918 -4.20463 -6.04352 -7.69267 -6.16584 -4.32073
0.496362 0.46421 0.111714 0.326597 0.174794 0.00343864 0.0271655 0.00562039 0.0144654 0.00974105
0.0156637 0.00491958 0.0100036 0.000207906 0.00453519 -0.00141029 0.00228953 -0.00108423 0.00210712 -0.000464949
0.00213846 0.000573976 0.00335614 0 0 0.614875 0.61042 0.610269 0.61459 0.635761
0.634866 0.705727 0.702596 0.927791 0.924503 1.64204 1.76362 1.7789 2.23702 2.47753
-4.05673 1.369 -4.10955 0.652407 -0.108614 -6.03329 0.572197 0.442501 0.189647 0.0291471
0.0072669 0.00944941 0.00561521 0.00102243 -0.000666005 -0.000315549 -0.000420206 0.00266474 0 0.609837
0.613821 0.632453 0.693565 0.903397 1.95752 2.0303 3.12932 3.8739 7.32553 -3.29711
-1.05047 4.58405 -5.73057 -5.72271 -2.26207 0.342675 0.829905 1.03286 0.927782 0.521543
0.517349 0.847329 0.880297 0.427815 0.16727 0.0229608 0.00226261 0.00648701 0.00435335 0.000400655
-0.00102072 -0.000476717 -0.000303629 0.00283951 0 0.609148 0.612632 0.628819 0.680879 0.86296
1.85141 2.13726 5.13587 5.58996 4.8273 32.5762 36.4613 52.0309 45.9868 4.77481
4.92433 3.40951 3.43963 2.69687 4.09861 0.840512 0.808914 0.788437 0.806201 1.3978
1.78686 1.84664 0.993107 0.482985 0.349911 0.127667 0.0135526 0.000482687 0.00698118 0.00619051
0.00259036 0.0011343 0.00144841 0.00204195 0.00348801 0 0.608272 0.611152 0.624387 0.666003
3.25352 3.75209 4.6842 4.76206 34.3633 32.7023 44.6285 50.769 0.802369 0.782109
0.940744 1.70358 2.62848 1.14305 0.081001 -4.88284 -5.30182 -2.74843 -0.228208 0.191123
0.0732644 -0.00550213 -0.0108455 -0.000866209 0.000958003 -0.0011535 -0.00173171 -0.000847164 0.000281191 0.00127023
0 0.607304 0.609531 0.61956 0.650024 0.74103 2.74808 1.73335 5.1916 3.29486
0.560622 -0.670537 0.698655 0.312002 0.313678 0.143698 -1.70887 0.67467 0.282489 -0.97386
-0.393674 0.0979876 0.0647891 -0.00288748 -0.0108225 -0.000959143 0.00153121 -0.000329923 -0.000895473 -4.31765e-05
0.00102827 0.00155004 0 0.60634 0.607922 0.614714 0.633899 0.677539 0.693416 0.82474
1.15996 0.325492 0.622672 0.613945 0.619047 0.65728 0.626383 0.5674 0.3847 0.0602518
-0.564063 -0.377529 0.0462523 0.0593178 -0.00430159 -0.015061 -0.00431042 -0.000704876 -0.00206846 -0.00238057
-0.00135728 -0.000166029 0.000427954 0 0.605477 0.606467 0.610293 0.566744 0.607273 0.607313
0.591302 0.496249 0.427714 0.0778817 -0.435057 -0.348674 -0.000921625 0.0480896 -0.0078559 -0.0187138
-0.00639875 -0.00170003 -0.00266074 -0.0027871 -0.00166415 -0.000408592 0.00025207 0 0.604799 0.605295
0.606751 0.495743 0.606335 0.595755 0.570982 0.458595 0.428258 0.0871967 -0.364811 -0.332746
-0.0274303 0.0430041 -0.00825804 -0.0197979 -0.00715106 -0.0021141 -0.00297727 -0.00303898 -0.00186896 -0.000587921
0.000116426 0 0.604361 0.604514 0.604409 0.599926 0.457472 0.564712 0.426104 0.0902833
-0.342445 -0.327595 -0.0357197 0.0414741 -0.00835443 -0.0202158 -0.00750972 -0.00234291 -0.0031365 -0.00313605
-0.00192313 -0.000622688 0.000102115 7.55769e-05 0.604208 0.604232 0.603566 0.597406 0.564202 0.445175
-10.2866 -11.1446 -11.7947 70.4837 60.0688 43.8836 29.6747 2.93334 1.69945 4.41215
5.07452 4.15709 4.57281 6.20572 5.42065 2.02287 1.73282 2.13913 2.97498 3.68206
3.37903 3.98633 2.24372 1.91252 6.06435 56.2571 39.4505 1.9351 2.25872 3.65303
4.75315 2.16737 -4.53347 -11.2122 -9.84803 -3.18216 8.46877 7.00546 11.9056 4.7507
17.4655 20.8218 9.13828 10.5186 2.58374 1.50279 0.998993 1.65764 19.7325 36.9183
5.61409 39.65 20.3326 18.8231 -58.6899 -58.4711 -58.6871 68.4677 68.3802 47.5666
44.801 3.40928 3.11304 -4.99817 0.358205 0.20865 -5.04769 2.58493 3.97713 3.93703
2.86555 1.83764 1.76298 1.62704 0.949881 0.761954 -1.36327 17.0091 28.1111 13.3007
7.27925 -56.5185 -56.3077 -58.7638 -58.6868 13.8848 19.1232 18.4901 -46.2722 -42.7188
-44.3974 -45.1315 -58.2161 -57.4819 -57.478 -57.6311 16.614 15.8879 12.0074 -29.3715
-27.9702 -45.3722 -37.0794 -58.8054 -45.9763 -58.6414 -48.1026 10.9887 4.29564 10.5058
11.8454 9.08787 9.36231 9.64986 4.52019 11.1113 0.914091 0.745346 3.72092 3.47934
4.06104 4.31784 47.7599 68.3503 -58.8129 -56.4441 6.50695 11.1185 -51.4163 -52.7055
-58.4074 4.47872 6.29759 6.46004 6.49476 -31.4253 -40.0325 -49.4248 -29.7789 64.4131
60.7977 41.6608 41.41 -44.0462 -56.0037 -11.5309 -8.59875 -0.445954 -24.5544 -42.4666
42.9889 44.316 64.3143 66.4852 -51.7737 -49.9381 -50.7078 0.319073 -9.69296 -12.7345
-11.7048 -21.6893 -24.8911 -57.8296 44.045 21.8554 22.1494 11.7042 12.0209 12.1947
13.1457 22.0265 44.5101 10.8 12.463 11.9033 13.2432 -58.6094 -58.6016 -58.0973
-58.0846 -57.4329 -56.8115 -56.4445 45.8242 66.8357 -58.2673 -58.5426 -58.9357 -58.1751
-29.8229 -35.0431 -32.7698 -13.7565 -1.60711 -4.92028 -50.5912 -50.2454 -57.9791 -13.159
0.122189 0.0391638 -13.3904 -58.2512 -56.795 -51.2884 -12.5047 -10.2354 -3.72781 1.54307
-7.37787 -5.60246 -18.6383 -38.3509 -41.4438 -36.3528 -52.2088 -53.2183 -52.9557 -4.1203
-17.5376 -18.2841 -4.73946 -56.0505 -51.9654 -56.0777 -3.55652 -9.27826 -16.5844 -11.6624
67.5373 46.8745 -54.1907 -54.3541 -56.7661 -56.6542 -56.1706 -53.6738 -57.0571 -53.1436
-55.9368 -58.8945 -59.0205 -59.0632 -32.0957 -77.032 -96.059 -101.01 -103.245 -102.805
-48.5602 -50.2072 -54.2251 -48.2468 -49.9459 -98.1202 -99.4153 -71.2895 -34.3227 -58.4104
-59.2116 -58.8935 -56.2324 -57.1237 -57.1806 -57.1056 -57.5168 7.12524 6.03846 8.93371
-56.0184 -55.692 -55.9166 -55.4128 -55.5368 -55.8106 -56.2134 -55.0857 -55.0705 2.04974
1.84109 0.721926 1.22612 4.20759 4.57828 1.33837 -55.8186 -56.2822 -56.9208 5.80921
6.63896 2.78815 0.890043 3.15416 -32.1171 -38.1336 -37.3775 -31.714 -54.5214 -55.012
-57.9253 -57.609 -54.9271 -55.7618 -38.9338 -43.2842 -43.0972 -36.9573 -46.0975 -50.1313
-53.2307 -53.3806 -52.2263 123.594 131.453 146.795 146.883 -58.0911 -56.1524 -56.427
-57.7905 -57.609 4.42839 2.14513 3.05093 4.65005 -9.75512 -3.9372 -5.88481 -8.91566
-11.7999 -39.062 -36.8886 -25.61 -27.3221 -32.1295 -39.08 -24.8811 -24.9232 31.1098
41.2891 52.1302 37.9345 23.0779 19.287 34.2632 26.1571 0.672357 0.830633 1.9892
34.0755 24.9034 17.0804 22.143 2.89663 3.83729 4.4797 4.58912 3.69955 6.67574
6.78201 4.59863 -9.34434 -8.22569 -1.3735 -10.2275 14.6901 9.14952 10.8248 -54.6283
-56.8766 -57.007 -54.8223 -82.6457 -81.3652 -84.6044 -47.908 -12.6644 -18.317 -27.5619
-55.9674 -52.8058 -55.3355 -56.4068 -74.0206 -73.7507 -58.3805 -59.65 -49.5364 -47.9512
-50.2123 -50.3772 3.76022 3.8205 -0.598327 5.99706 5.65242 4.66689 5.33747 5.73399
6.14031 -54.1114 -53.6447 -68.7594 -67.9717 79.0085 94.1039 85.7017 112.11 106.421
88.843 90.158 161.85 164.181 153.361 121.631 98.4121 104.352 97.3071 117.644
-12.9072 -26.9683 -31.2809 -5.86905 -26.1515 -52.0551 -41.727 -6.34338 93.7307 101.229
86.8108 78.2792 96.7048 88.4018 107.613 148.468 158.218 167.407 165.144 106.629
102.907 159.636 -32.6532 -8.00414 -38.3268 -28.5485 -47.7229 140.209 140.079 115.603
110.584 110.245 115.508 139.602 138.986 108.134 167.23 170.835 172.006 172.297
173.709 186.647 186.836 174.816 173.268 -33.0136 -40.1206 -32.969 -56.419 -50.8202
-42.6946 -41.9398 -40.6824 -25.6003 2.7532 -2.62297 -0.676459 173.388 175.332 187.188
172.36 186.504 187.148 175.22 172.169 179.597 181.761 170.111 168.879 179.895
167.878 171.096 182.419 -52.6035 -37.8411 -36.5964 -55.7004 -55.7453 -55.8445 -36.3918
-46.2365 -36.4882 -36.9463 -45.8413 -45.8097 -3.39013 -9.25573 -25.137 -25.177 -32.9473
-43.5786 -32.9831 -32.6819 -43.0012 -21.2413 -18.9383 -20.6819 115.421 140.139 138.125
139.035 114.679 109.307 170.036 169.91 170.478 167.741 136.399 108.397 113.575
137.15 -57.1221 -54.1903 -52.8186 -52.6467 -55.6721 -46.1367 90.134 93.3931 78.6214
-14.8919 -6.17521 -6.71377 -20.8175 54.5437 56.4054 70.007 73.6579 -55.8453 -55.0864
-55.3861 -55.8408 -57.0141 -57.2602 -57.4002 -57.4994 -56.0877 -56.1851 -55.769 -55.8734
-134.802 -109.256 -77.7155 -95.6096 -97.9679 -99.1105 -99.1022 -83.2325 -78.9359 -92.515
-70.572 -85.5778 -133.07 -136.584 -128.468 -96.1623 -96.971 -54.7407 -54.1967 -54.8877
-55.9926 -56.2842 -53.8288 -53.7503 6.77779 7.31674 13.7367 16.3594 13.8284 -50.9288
-50.2022 -45.7492 -45.9816 -46.0905 -45.8872 -45.8599 -45.6415 12.9468 12.6798 16.8728
8.27501 8.07824 9.64357 10.1237 10.1492 8.51076 7.32717 8.08679 12.3969 15.7012
13.7187 0.779077 -0.853506 -3.04089 7.04061 6.20753 5.08635 6.42563 7.14875 -52.4663
-53.341 -56.3028 -55.6282 -48.6303 -49.5961 13.6266 15.5923 16.989 -46.7566 -49.6761
-49.8075 -46.4707 -45.6232 11.353 11.0952 11.1378 9.56355 6.86599 -6.95117 -5.71173
5.50815 6.30114 6.25764 -48.5067 -48.8342 146.49 148.514 140.93 136.969 113.349
118.309 125.719 121.193 184.605 185.881 182.182 178.424 -55.6535 -55.5891 -52.9977
-52.9063 169.638 183.358 185.057 172.995 174.451 186.571 171.03 182.144 169.626
179.279 -16.9102 -19.1866 -23.9369 -28.1876 -26.7907 -22.9124 -8.76479 -3.43719 -3.87822
-9.06776 -14.0915 -13.7253 -1.03479 -9.06789 -9.93746 -15.0198 -18.1533 -8.21463 -8.97115
-24.9605 -20.229 -9.65857 -0.779663 -3.05245 6.05494 -3.4926 6.03747 6.80478 3.38097
3.91028 4.63066 4.19196 7.72107 6.09721 3.96075 5.81758 -18.9123 -15.9883 -26.3265
-21.4537 -56.3978 -58.1034 -58.6973 -58.5699 3.04629 3.1138 5.04349 5.52134 4.29288
4.88982 -14.5536 -40.2922 -57.2473 -65.4634 -53.2479 -31.8926 -58.8768 10.7331 10.1913
10.2145 -2.36882 0.260302 11.9972 17.2471 9.50464 23.6664 20.5578 10.4334 1.72026
6.84173 8.33202 13.1174 11.5511 6.78665 -53.437 -44.0433 -49.9019 -13.0601 -43.8941
-24.9491 -60.6095 -83.7108 108.685 92.7263 106.204 108.365 112.748 111.881 172.883
172.006 173.257 172.574 171.275 185.963 185.964 185.198 -57.9239 -58.1432 174.486
-56.1524 -56.1509 -57.0946 -57.2592 -56.9705 -55.7841 -150.244 -137.132 -136.998 -133.775
-157.897 -136.887 -132.616 -132.936 -119.639 -115.065 -80.4281 -73.1552 -73.4609 -70.861
-119.398 -121.114 -56.7333 -55.7313 -54.6225 -57.1113 9.48071 7.12981 10.6913 8.23931
11.0065 12.0323 12.4035 13.3827 14.1697 -55.2515 -54.3223 -56.2796 -55.0934 -53.1391
-52.876 -52.9873 -54.9172 -5.92958 -0.44293 -1.38888 -4.56369 9.19481 9.56138 6.81609
5.86451 7.56878 9.55213 8.79968 6.72196 1.30861 8.17025 7.0625 6.89771 8.68966
10.4155 9.23844 12.0523 11.3402 -54.683 -55.1056 -55.1942 -55.3213 -55.4727 -55.3222
-54.8184 -52.8029 -54.1315 -54.1401 -54.1524 -51.099 -52.4891 -73.7968 -73.019 -57.6428
-59.9366 -77.6067 -68.4542 -77.4802 -123.919 -128.509 -136.133 -79.5409 -97.581 -107.396
-80.4046 -98.9231 128.758 113.593 148.526 151.75 -54.5657 -53.7868 -54.9008 -54.887
-53.1065 143.892 167.877 146.151 -49.0028 -48.1688 -48.6097 -49.3817 -49.1944 -49.2119
-49.139 -47.6454 -8.07628 -9.36121 -11.8986 -11.0128 -14.864 -17.0425 -19.1826 -16.9701
-17.8974 74.8213 85.5204 -58.4749 51.249 76.543 65.0105 75.5394 60.9987 13.7292
10.7384 45.5173 36.5246 8.34661 9.18758 3.64596 5.30796 5.11811 7.79624 6.72296
7.08825 7.47328 8.28072 -52.788 -52.3453 -52.0602 -52.6469 -0.985052 -0.484905 -1.05874
2.29894 5.70793 5.15077 7.09966 6.53342 -50.9746 -51.3914 -51.1154 138.202 136.281
171.188 184.779 189.084 189.371 186.861 185.338 -55.7205 -55.4249 -55.7446 -55.5644
-53.1363 -45.5721 -46.4002 -47.0352 -46.2427 -46.5779 -47.8692 -56.0583 -56.0829 -56.6748
-57.2555 -56.9555 -56.9393 -57.1006 -56.7127 -55.0448 -115.744 -111.393 -135.21 -111.861
-134.128 -122.311 -123.787 -133.599 -56.1596 -57.4159 -55.8676 -54.5269 13.6917 12.3192
11.2904 12.4681 12.7184 13.3709 -36.8102 -36.2943 -31.4918 -30.954 -41.785 -42.314
-46.4672 -46.0787 -51.1036 -51.1519 -45.5566 -52.1488 -51.787 -6.11995 -0.900421 -11.3723
0.70202 2.13451 8.01603 7.55047 7.87526 4.31086 10.6867 7.35778 8.76642 10.2476
10.8898 10.7805 10.9218 12.6833 12.3569 2.406 12.4164 14.8014 15.9685 3.88145
3.39036 3.12722 3.80762 -58.8992 -58.0563 -52.8711 -56.4814 -44.654 -44.1341 -40.1001
-44.461 -45.862 -49.9069 -51.0984 -49.5619 -49.7775 -49.5436 -47.0995 -52.1899 -47.1938
4.20195 -48.2626 -49.5401 141.006 131.814 129.411 129.46 129.84 114.356 106.933
188.661 188.134 187.138 -50.6903 -51.017 -1.35452 -0.783779 0.252712 -29.6417 -30.5647
186.058 186.893 180.37 183.33 181.877 181.506 -33.2177 -29.0509 -3.12335 -7.76313
-5.88797 -3.16481 -24.7558 -13.6236 -10.2044 -13.4096 -19.8296 -4.58283 80.8706 56.5182
60.8533 21.0697 21.437 68.0161 110.706 10.1463 7.19423 -2.20428 -2.46389 6.83497
7.62663 7.9154 6.11986 6.56827 24.5464 16.3125 -0.392793 19.7756 -1.73187 3.51212
8.16682 8.09198 68.0222 110.209 -54.7303 -55.8094 18.1332 91.5122 109.002 100.404
92.4554 108.071 109.182 126.592 134.331 143.205 -55.7767 81.5344 73.5067 50.311
12.5958 18.65 16.8217 -75.4002 -56.8158 -56.8093 -56.8126 -55.2725 -55.1941 -59.9264
-55.4609 -59.9186 -60.4909 23.3513 -6.4841 5.9616 10.5636 10.7925 -1.3624 -1.46666
-2.57337 -55.6036 -54.1399 -0.988477 2.56192 2.8676 -57.4926 -56.9291 -56.0829 7.98708
7.67776 4.16031 -56.5815 41.6784 49.5748 -66.8694 -59.0655 17.3581 14.8618 8.98991
6.91095 5.0797 8.51649 6.96301 -54.1472 -54.1069 -52.9329 -52.8613 -55.7907 -52.2063
-51.7312 -54.4288 -54.7357 -54.7256 -54.2166 -55.2987 -54.8684 -54.7374 -54.4768 4.50124
-51.7218 -57.8042 -56.7748 100.526 129.156 144.72 155.184 168.097 162.931 160.743
148.744 188.243 -52.785 -53.7031 -51.9107 -7.42645 -10.4632 -3.2812 -49.6953 -49.7186
-49.6933 -49.9676 -53.1316 -47.224 -48.7668 -47.546 -47.0494 -47.7504 28.892 20.3255
-112.181 -119.783 -119.641 -120.274 -120.617 -73.9433 -96.5604 -73.9469 13.4059 17.0171
-10.8532 12.0661 11.5091 -5.49834 -7.06949 4.09218 2.47826 0.965885 0.625355 -0.648126
-2.26938 -1.01369 4.13292 4.51459 0.592808 2.8345 4.48917 2.39572 1.30711 13.3445
17.6196 -50.0479 5.52322 12.7613 8.51675 16.4676 8.48818 11.1776 14.1872 15.9584
4.79002 5.00359 6.48486 5.91066 -2.02501 -3.93335 -6.16908 -6.0698 4.90485 1.71747
4.41179 9.44727 15.3305 16.5354 8.24747 5.6874 3.08251 2.77391 7.19652 10.6568
11.3122 11.9528 11.0852 5.72633 -3.46929 5.60184 -2.71813 3.25082 -3.47818 2.49414
10.9933 8.33313 12.3641 6.98579 9.46644 11.3832 10.7817 10.4824 7.93287 8.62378
9.14386 9.39166 7.90268 7.36682 7.37709 6.02689 -5.40536 -8.90043 -7.12506 6.49937
5.90322 7.96401 6.27311 -9.10778 -10.8533 1.13496 7.0715 5.90863 -1.60605 5.69789
-137.298 -137.867 -138.038 10.2619 -55.5424 -54.5142 -54.5636 5.25395 9.91781 5.34032
8.40741 11.0108 -55.7005 -55.6704 -55.0375 -54.7319 -60.9831 -60.4788 -60.9617 -69.0126
-115.962 -119.773 -113.649 -120.482 -48.9582 -49.4832 -47.4444 -47.1464 -47.4129 -47.1206
-14.6599 -14.6592 -17.0785 -52.5985 -52.4136 -52.1714 5.15258 1.539 4.99976 4.9716
-51.9707 -52.4062 -52.5297 141.765 151.117 -55.222 -50.6794 13.3823 13.9301 11.5912
7.21131 11.4735 18.7127 4.24388 3.36402 4.70276 3.69885 -53.2642 -57.1953 -57.0067
-55.2677 7.77179 15.0754 11.1136 4.11227 4.26259 10.0818 8.8299 9.51423 8.62868
10.4007 12.422 10.2651 5.85818 8.5767 8.23038 -54.1123 -50.1417 -48.5116 91.2474
80.285 84.2434 66.7813 72.7626 -4.75881 -2.88899 0.343215 -1.43646 7.65885 8.16742
7.71309 8.29034 8.05257 7.55118 7.09658 116.847 106.808 94.7672 -73.8714 -57.2808
-55.9883 -54.8435 -54.6785 -54.3051 -54.2796 163.483 139.766 161.892 162.002 7.67838
4.55354 10.6437 11.3498 7.23497 8.56254 7.46585 6.93178 6.18665 2.79601 -2.32265
4.79104 5.42616 6.00611 4.38645 6.68515 14.4321 9.04952 -12.6632 15.625 14.2766
7.64793 10.7558 15.9508 9.14564 -12.5758 -13.4913 -11.5697 -2.77594 -4.77803 -13.0045
7.2625 5.32073 -14.587 -16.1832 7.21632 4.88647 -0.957986 -3.811 -55.0225 -45.903
13.101 1.97533 0.312964 -0.0752501 6.01714 5.58023 6.51123 6.09738 6.05347 5.63462
0.350114 6.30118 6.94433 -0.384315 5.75244 4.77863 7.21515 6.70706 6.13462 106.223
86.6952 122.035 123.821 5.22012 4.95011 3.50963 -55.24 5.15002 6.13027 5.90949
-9.50545 -12.457 -0.184045 6.30245 6.79183 5.44874 8.12434 5.25521 6.94638 3.94488
37.0237 -53.1933 -55.1461 -54.6512 -54.6073 -54.6713 -2.90188 -4.27235 -12.4463 -12.316
-12.3381 -3.35243 9.41898 3.17826 6.02161 7.09556 2.65269 2.44237 0.180517 -0.779778
-10.7721 -5.12496 -4.01753 -11.1327 -4.06621 -11.9834 5.63761 -11.2448 -12.2741 -2.36041
1.26447 6.40043 6.41314 5.84547 8.88387 0.295615 6.69994 -3.02919 -1.02089 4.40293
-0.708625 7.26697 4.88379 -9.80968 9.03844 -0.567012 6.2029 1.1177 1.4999 4.87687
5.23421 4.31799 5.04058 3.1856 7.69053 8.93114 5.50396 6.11406 1.01988 3.49007
11.1075 5.59449 0.897817 -0.468978 3.68379 173.154 176.977 176.118 181.03 169.131
168.101 172.681 179.948 180.94 69.4701 73.6795 54.8184 -56.1192 -41.5207 -38.6445
-36.9024 -30.9908 -43.7865 -51.9191 -51.571 -55.2701 -46.773 100.761 154.481 162.118
155.259 146.999 -56.5772 -56.1739 -56.5161 -56.2828 -55.795 -56.2423 -54.877 -55.1801
-55.022 4.00181 -0.300818 171.243 -18.3984 186.019 190.265 189.413 -51.3141 -47.3047
182.755 185.886 186.061 -16.3829 -51.1105 85.2783 -54.9889 -55.1202 -55.3819 -55.3448
-49.4457 189.386 -2.39406 189.505 185.526 189.099 7.38353 -64.264 110.615 109.922
-55.8676 4.63591 -51.7218 -53.018 -51.836 -138.281 138.746 -54.8347 159.21 -51.9587
-120.697 -120.615 72.2967 6.99121 2.66761 168.089 164.702 -15.4023 139.851 191.11
190.005 185.409 189.457 190.794 189.789 172.799 191.165 186.785 189.959 191.199
0.614891 0.610427 0.635751 0.704858 0.918755 1.62262 2.20814 -3.98516 1.35606 0.0250595
-4.09971 -5.86931 0.409093 0.0902973 -0.0015698 0.0054111 0.0104553 0.0057587 0.00103126 -0.000638158
-0.000371065 0.000190899 0.00112645 0.000611418 -54.1306 -52.4018 -133.95 -134.505 -47.9862 -48.446
-49.1124 -47.8282 -48.3302 -49.0398 -49.6965 -47.3325 -95.1303 -74.7351 -48.8295 -47.1764
-74.1729 -48.7538 -51.2262 -51.5796 -50.6992 -99.586 -111.205 -129.455 -119.771 -119.592

U 3 2021 float
20.0063 -0.0457084 -0.215717 20.0439 -0.0306862 -0.073988 19.9291 -0.00638601 -0.0964694 19.9357 -0.05574
-0.606383 20.0175 -0.0592387 0.0399709 20.0178 -0.0591335 0.0400039 20.1681 -0.0780639 0.0575316
20.2328 -0.086217 0.0655698 20.2783 -0.0911564 0.149286 20.291 -0.115713 0.263871 20.21
-0.117054 0.208646 19.9545 -0.0472409 0.0198591 19.9967 -0.0545993 0.018366 20.0037 -0.0528938
0.00698874 19.8529 -0.0246633 0.0176522 19.8517 -0.0214398 0.0141115 20.0059 -0.0526102 0.0019086
19.8541 -0.0200246 0.00963971 20.0044 -0.0517958 0.000531641 19.8532 -0.0183732 0.00874911 20.0026
-0.0509759 4.17172e-07 19.8519 -0.0168201 0.00845455 20.0011 -0.0502169 -0.00028074 19.8507 -0.0154844
0.00822498 19.9996 -0.0495348 -0.000462368 19.8497 -0.0143218 0.00801283 19.9979 -0.0488802 -0.000588763
19.8486 -0.0132608 0.00782778 19.9962 -0.0482379 -0.000687941 19.8475 -0.0122969 0.00763134 19.9946
-0.0476097 -0.000724681 19.8465 -0.0114134 0.00754414 19.9926 -0.04696 -0.000816154 19.8454 -0.0104849
0.00726843 19.845 -0.0100028 0.00696875 19.9923 -0.0467511 -0.000858013 19.9996 -0.000341117 3.12632e-05
20 0 0 20 0 0 19.9996 -0.000341186 7.85998e-05 19.9983
-0.000787619 9.38016e-05 19.9984 -0.000797236 0.000278519 19.9942 -0.00155011 0.000368049 19.9941 -0.00151499
0.000999546 19.9788 -0.00279747 0.000335014 19.9796 -0.00311932 0.00357562 19.9464 -0.00543691 -0.00906111
19.9363 -0.00620711 -0.00797134 19.9389 0.00230684 -0.014328 19.9277 -0.00539888 -0.0295132 19.9062
0.00529236 -0.0610135 20.2332 -0.0725413 0.00185914 20.0485 -0.0288475 -0.0566293 20.2354 -0.0716171
0.00513828 19.9273 -0.0891569 0.0305014 20.0248 -0.118355 0.0819084 20.2325 -0.0861856 0.0650511
19.8549 -0.0298776 0.0233801 19.3071 0.119885 0.0100572 19.3392 0.117346 0.0111653 19.3672
0.111635 0.011226 19.3884 0.107346 0.011916 19.4067 0.103564 0.012427 19.4236 0.0999808
0.0126095 19.4396 0.0965941 0.0126213 19.4545 0.0934075 0.0125552 19.4688 0.090369 0.0124207
19.4819 0.0874899 0.0123122 19.4967 0.0846792 0.0120346 19.5054 0.0832368 0.0117767 20
0 0 19.9996 -0.000341769 0.000137217 19.9985 -0.000795701 0.000490104 19.9945 -0.00152114
0.0017188 19.9801 -0.00324102 0.00603102 19.9197 -0.0087575 0.0107292 19.9194 -0.00793306 0.000994246
19.85 -0.0165198 -0.0957664 19.7933 -0.0204595 -0.0681583 19.9556 -0.0510715 -1.02415 20.435
-0.0679386 -0.934026 20.216 -0.0532885 -0.508675 19.9306 -0.0557594 -0.635873 20.3099 -0.163075
0.453243 20.3103 -0.163954 0.456702 20.1014 -0.249001 0.582319 19.9909 -0.238185 0.300564