# vtk DataFile Version 2.0
sampleSurface
ASCII
DATASET POLYDATA
POINTS 2021 float
-0.500032 0 0.11501 -0.499951 3.38813e-21 0.0392727 -0.789037 8.47033e-21 0.120673 -0.500013 -1.35525e-20
0.193965 1.00003 0 0.0485099 1.00003 0 0.0478584 0.475202 0 0.0353615
0.250044 1.41878e-20 0.0305359 0.2506 -5.42101e-20 0.117067 0.251301 0 0.203885 0.364989
0 0.203772 1.75002 0 0.113255 1.75002 0 0.0564279 2.50001 6.89146e-18
0.059229 2.21354 0 0.250758 2.50001 0 0.252875 3.25001 -3.47927e-17 0.0598775
3.25001 -1.69407e-21 0.253888 4.00001 5.60566e-18 0.0599857 4 0 0.253986 4.75
-1.79088e-17 0.0599988 4.75 8.47033e-22 0.253998 5.5 -2.79246e-17 0.0599999 5.5 -4.23516e-22
0.253999 6.25 1.01187e-17 0.06 6.25 0 0.254 7 2.93732e-17 0.06
7 0 0.254 7.75 -2.65294e-17 0.06 7.75 0 0.254 8.5
1.8923e-17 0.06 8.5 0 0.254 9.25 -2.88552e-17 0.06 9.25 -5.29396e-23
0.254 10 -2.64698e-23 0.254 10 0 0.06 -4.24997 0 0.0599042
-5 0 0.0599861 -5 0 0.253986 -4.24997 0 0.253912 -3.49995
0 0.0593815 -3.49994 0 0.253441 -2.74993 0 0.0570188 -2.74991 0
0.251316 -1.99991 0 0.0492276 -1.99987 0 0.242776 -1.24992 -1.69407e-21 0.03
-1.24985 1.23328e-17 0.222327 -1.24989 3.38813e-21 0.125756 -0.874924 2.08116e-17 0.03 -0.874929
0 0.122356 -0.124951 -8.47033e-22 0.03 -0.499941 0 0.03 -0.124922 -8.47033e-22
0.0385291 1.00021 0 0.231242 0.625368 0 0.203537 0.25004 -2.11758e-22 0.03
1.75003 0 0.247334 1.92873 1.69407e-21 0.441438 2.50001 0 0.447397 3.25
-1.69407e-21 0.447898 4 0 0.447986 4.75 0 0.447997 5.5 -4.23516e-22
0.447999 6.25 4.23516e-22 0.447999 7 0 0.448 7.75 -1.05879e-22 0.448
8.5 0 0.448 9.25 0 0.448 10 -2.64698e-23 0.448 -5
-8.47033e-22 0.447985 -4.24997 0 0.447919 -3.49993 0 0.4475 -2.74988 0
0.445609 -1.9998 6.77626e-21 0.437758 -1.24969 1.61411e-17 0.417681 -1.24976 -6.77626e-21 0.31973
-0.875161 7.70461e-18 0.216228 -0.875403 0 0.312476 -0.499924 -8.74138e-19 0.250039 -0.312433
0 0.250037 -0.312436 0 0.200025 -0.499924 0 0.200026 0.250062 3.38813e-21
0.24921 0.250039 -1.69407e-21 0.250046 0.250032 0 0.300069 0.437526 3.05948e-18 0.300066
0.625026 0 0.30005 1.00072 -8.23994e-18 0.326497 1.00196 0 0.423 1.75013
0 0.439575 1.75013 1.77877e-20 0.448245 1.00135 0 0.537141 1.00002 0
0.61834 1.74999 2.71051e-20 0.633055 2.49999 -3.38813e-21 0.641448 3.25 0 0.641907
4 -1.69407e-21 0.641985 4.75 -8.47033e-22 0.641996 5.5 -4.23516e-22 0.641998 6.25
0 0.641999 7 0 0.641999 7.75 0 0.642 8.5 5.29396e-23
0.642 9.25 -5.29396e-23 0.642 10 0 0.642 -5 0 0.641985
-4.24997 -1.69407e-21 0.641926 -3.49993 0 0.641557 -2.74988 0 0.639897 -1.99989
6.77626e-21 0.63382 -1.25099 2.55465e-18 0.614606 -1.25 -2.71051e-20 0.515981 -0.878244 0
0.50789 -0.875961 2.71051e-20 0.459694 -0.875609 0 0.410432 -0.498432 0 0.400603
-0.498071 -1.70762e-18 0.413126 -0.450805 0 0.413349 -0.45095 0 0.400955 0.250009
1.89735e-19 0.412703 0.25 2.71051e-20 0.425212 0.296872 1.00289e-18 0.425187 0.343754 -2.71051e-20
0.425153 0.343763 0 0.400146 0.250006 0 0.400175 1.00162 1.41488e-17 0.520353
-2 4.23516e-22 0.820145 -2.09502 -2.11758e-22 0.830091 -2 0 0.829497 -1.25123
0 0.813251 -1.25126 0 0.713737 -1.25101 6.77626e-21 0.62198 1.00059 0
0.714169 1.00094 0 0.809205 1.75018 0 0.82775 2.5 0 0.835521
3.25 0 0.835917 4 -1.69407e-21 0.835986 4.75 -8.47033e-22 0.835996 5.5
0 0.835998 6.25 0 0.835999 7 0 0.835999 7.75 0
0.836 8.5 0 0.836 9.25 0 0.836 10 0 0.836
-5 -8.47033e-22 0.835986 -4.24997 0 0.835935 -3.49995 0 0.835616 -2.74991
0 0.83419 -0.970118 0 0.703382 -0.87455 0 0.699864 -0.874264 -2.71051e-20
0.649852 -0.874033 -2.71051e-20 0.599873 -0.49698 0 0.599585 -0.497345 -9.21572e-19 0.612046
-0.450014 0 0.611892 -0.44938 2.71051e-20 0.599454 -2.00002 0 0.84097 -1.84639
-3.38813e-21 1.02215 -1.25185 0 1.01276 -0.896512 -3.38813e-21 0.900668 -0.908183 6.77626e-21
0.801076 -0.904022 -1.86347e-20 1.00093 0.624925 0 0.799916 0.249931 0 0.799891
0.249978 0 0.899916 0.249997 0 0.999939 0.999987 0 0.999957 1.75061
-2.1684e-19 1.02409 2.50003 0 1.0296 3.25 -1.69407e-21 1.02993 4 0
1.02999 4.75 0 1.03 5.5 0 1.03 6.25 2.11758e-22 1.03
7 0 1.03 7.75 0 1.03 8.5 5.29396e-23 1.03 9.25
0 1.03 10 0 1.03 -5 0 1.02999 -4.24998 0
1.02994 -3.49996 -8.47033e-22 1.02968 -2.74996 0 1.02849 -2.00026 0 1.02458
-0.87482 0 0.799893 -0.87491 0 0.899919 -0.49993 0 0.799862 -0.499958
7.6233e-19 0.849889 -0.312476 0 0.849885 -0.312472 0 0.799853 -1.25001 8.04681e-21
1.19601 -0.499979 5.29396e-23 1.10737 -0.731886 2.11758e-22 1.19997 -0.499981 0 1.19997
-0.124987 0 0.999933 -0.477759 -5.29396e-23 0.999933 -0.487556 -1.45584e-22 1.09995 0.250008
0 1.19997 1 0 1.19997 1.7507 0 1.22203 2.50003 -1.35525e-20
1.22368 3.25 0 1.22394 4 0 1.22399 4.75 4.23516e-22 1.224
5.5 0 1.224 6.25 2.11758e-22 1.224 7 0 1.224 7.75
1.05879e-22 1.224 8.5 0 1.224 9.25 0 1.224 10 2.64698e-23
1.224 -5 4.23516e-22 1.22399 -4.24999 -4.23516e-22 1.22395 -3.49998 0 1.22374
-2.75001 0 1.22279 -2.00077 0 1.21965 -1.24997 4.23516e-22 1.19997 -0.499969
-5.29396e-23 0.999933 -0.874942 0 0.999936 -0.499979 -1.32349e-23 1.09995 -2.75001 0
1.36967 -3.18711 4.23516e-22 1.41751 -2.75001 4.23516e-22 1.4171 -2.00072 3.38813e-21 1.29692
-2.00065 0 1.41474 -1.25823 6.35275e-21 1.40014 -0.980416 0 1.39998 -0.499986
0 1.39998 0.250009 0 1.39998 1 0 1.39998 1.75054 0
1.41682 2.50002 -1.35525e-20 1.41776 3.25 0 1.41796 4 4.23516e-22 1.41799
4.75 0 1.418 5.5 0 1.418 6.25 0 1.418 7
0 1.418 7.75 0 1.418 8.5 0 1.418 9.25 0
1.418 10 0 1.418 -5 0 1.41799 -4.24999 0 1.41797
-3.49999 -4.23516e-22 1.41781 -1.24998 0 1.39998 -2.80392 1.32349e-23 1.61143 -2.75
-1.32349e-23 1.6114 -2.0003 0 1.60983 -1.25396 2.64698e-23 1.60004 -1.12789 2.64698e-23
1.59999 -0.49999 1.05879e-22 1.59999 0.250008 0 1.59999 1.00001 4.23516e-22 1.59999
1.75038 0 1.61122 2.50002 0 1.61184 3.25 -4.23516e-22 1.61197 4
-4.23516e-22 1.61199 4.75 0 1.612 5.5 0 1.612 6.25 0
1.612 7 0 1.612 7.75 5.29396e-23 1.612 8.5 2.64698e-23 1.612
9.25 -1.32349e-23 1.612 10 -1.32349e-23 1.612 -5 0 1.61199 -4.24999
0 1.61198 -3.49999 0 1.61187 -1.24999 0 1.59999 -2.75 -1.32349e-23
1.63714 -2.64195 -2.11758e-22 1.80559 -2.00012 -8.47033e-22 1.80492 -1.25741 0 1.80004
-1.19082 -7.94093e-23 1.8 -0.499992 1.05879e-22 1.79999 0.250006 2.11758e-22 1.79999 1
0 1.8 1.75023 0 1.80561 2.50001 3.38813e-21 1.80592 3.25 0
1.80599 4 0 1.806 4.75 2.11758e-22 1.806 5.5 0 1.806
6.25 0 1.806 7 0 1.806 7.75 0 1.806 8.5
2.64698e-23 1.806 9.25 0 1.806 10 0 1.806 -5 0
1.806 -4.25 -2.11758e-22 1.80599 -3.49999 0 1.80594 -2.75 -1.05879e-22 1.8057
-1.24999 0 1.8 -2 -4.76456e-22 1.98532 -1.20969 -1.65436e-23 2 -0.499993
0 2 0.250006 0 2 1 0 2 1.75 0
2 2.5 0 2 3.25 0 2 4 0 2
4.75 -1.05879e-22 2 5.5 0 2 6.25 0 2 7
5.29396e-23 2 7.75 0 2 8.5 0 2 9.25 0
2 10 -1.32349e-23 2 -5 2.21817e-18 2 -4.25 1.05879e-22 2
-3.49999 0 2 -2.74999 0 2 -1.99999 -5.29396e-23 2 -1.24999
3.30872e-24 2 0.0956945 -5.42101e-20 0.203879 0.0632748 0 0.203876 0.0625511 0
0.250042 -0.403589 6.77626e-21 0.40138 -0.405779 7.7927e-19 0.38799 -0.406379 -6.77626e-21 0.375196
-0.499567 -1.35525e-20 0.375265 0.250006 -6.50521e-19 0.375144 0.156247 0 0.375155 0.156237
9.41901e-19 0.400212 0.203129 0 0.400201 0.249796 0 0.59991 0.249852 -1.0842e-19
0.587433 0.202953 0 0.587417 0.202888 6.50521e-19 0.599901 0.625121 -6.77626e-21 0.499953
0.717439 6.77626e-21 0.504955 0.625095 6.77626e-21 0.475379 0.343596 1.0842e-19 0.599918 0.343639
0 0.574939 0.296781 0 0.574964 0.249926 0 0.574977 0.62499 -4.2826e-18
0.549927 0.624917 4.55365e-18 0.599925 0.203133 0 0.412725 -0.449046 0 0.587135
-0.496581 5.42101e-20 0.587161 0.625036 -9.32414e-18 0.40006 0.625067 1.13164e-18 0.450032 0.249704
0 0.624881 0.155871 0 0.599866 0.155839 1.95156e-18 0.624853 0.249886 1.35525e-20
0.749873 0.062411 0 0.749846 0.0624478 -4.26227e-18 0.799869 -0.312472 0 0.749804
-0.499901 -3.38813e-21 0.749824 -0.691227 0 0.30453 -0.499912 3.02221e-18 0.300065 -0.875784
-3.11708e-18 0.361353 -0.592465 -2.71051e-20 0.40036 -0.499854 0 0.350135 -0.687111 1.35525e-20
0.350117 -0.68656 -2.71051e-20 0.40021 0.437526 -1.35525e-20 0.400108 0.437522 6.77626e-21 0.350086
0.250015 -2.51399e-18 0.35011 0.625027 3.38813e-21 0.350064 -0.592287 0 0.425286 -0.498048
0 0.425444 -0.873902 5.42101e-18 0.54992 -0.496663 0 0.574746 -0.591532 0
0.574798 -0.591729 0 0.599734 -0.149108 0 0.406489 -0.149477 -5.29396e-23 0.403592
-0.149678 0 0.406489 -0.451876 -2.1684e-18 0.499977 -0.451579 0 0.487563 -0.498366
0 0.487552 -0.498515 -1.0842e-19 0.499993 0.437553 0 0.450075 0.437532 -6.07153e-18
0.425113 0.254621 -1.25361e-19 0.496697 0.26485 -5.42101e-20 0.498023 0.264831 0 0.496529
0.254636 -2.30393e-19 0.49668 0.570241 0 0.499932 0.437665 -2.71051e-20 0.474991 0.437859
-2.71051e-20 0.49988 0.437372 -1.0842e-19 0.599915 0.249722 3.25261e-19 0.649874 0.43732 -5.42101e-20
0.649899 0.624872 0 0.649914 0.624883 -3.95734e-18 0.699913 0.43734 6.83047e-18 0.699894
0.249817 0 0.699869 -0.592227 0 0.624743 -0.498071 -2.71051e-20 0.624658 -0.499769
6.77626e-21 0.69979 -0.687025 0 0.699824 -0.150854 -1.03677e-18 0.599678 -0.151059 -6.77626e-21
0.605522 -0.127339 6.77626e-21 0.605681 -0.127867 0 0.599582 -0.406139 -4.40457e-20 0.699754
-0.406113 0 0.674749 -0.499634 0 0.674774 -0.18433 -4.23516e-22 0.674527 -0.163626
-4.23516e-22 0.678958 -0.165125 0 0.674537 -0.171868 4.23516e-22 0.674524 -0.14924 3.34737e-19
0.400169 -0.125737 0 0.400165 -0.12551 0 0.393854 -0.149076 -2.11758e-22 0.393877
-0.499925 -2.61564e-18 0.325088 -0.406241 0 0.325087 -0.4062 0 0.300069 -0.124901
0 0.300062 -0.218633 -3.27294e-18 0.299673 -0.218596 1.35525e-20 0.324664 -0.124851 0
0.325085 -0.126061 7.86047e-19 0.406473 -0.0785222 1.30782e-18 0.400166 -0.126118 3.38813e-21 0.41275
-0.0785648 0 0.412729 0.240678 1.0842e-18 0.500153 0.252614 -2.1684e-19 0.498317 0.252386
1.0842e-19 0.496231 0.241035 0 0.496114 0.228892 -1.35525e-20 0.496204 0.228835 6.77626e-21
0.498715 0.229819 2.71051e-20 0.500074 0.25248 0 0.499935 0.240657 -1.6263e-19 0.500957
0.264863 0 0.500154 0.264689 0 0.500951 0.437443 0 0.549896 0.437406
[...]
POINT_DATA 2021
FIELD attributes 2
p 1 2021 float
2.00869 1.43732 2.36957 4.3616 0.0598384 0.0577247 -4.20377 -6.04226 -7.69089 -6.16293 -4.31883
0.496184 0.464031 0.111523 0.326482 0.174717 0.00319198 0.027043 0.00531613 0.0142525 0.00945107
0.0154286 0.00471307 0.00982158 0.000112193 0.00444723 -0.00143268 0.00226396 -0.00109644 0.00208154 -0.000486348
0.00209841 0.000550194 0.00331081 0 0 0.614486 0.610032 0.609881 0.6142 0.635358
0.634462 0.705289 0.702158 0.927247 0.923962 1.64116 1.76272 1.778 2.23607 2.47663
-4.05697 1.36731 -4.1098 0.65179 -0.109033 -6.03204 0.572021 0.442154 0.189567 0.0291274
0.00716233 0.00929415 0.00547729 0.000963926 -0.000666359 -0.000324789 -0.0004492 0.0026249 0 0.609448
0.613431 0.632048 0.693126 0.902865 1.95664 2.02935 3.12813 3.87248 7.32201 -3.3035
-1.05301 4.58161 -5.72495 -5.71704 -2.25758 0.340302 0.827853 1.03146 0.926665 0.521112
0.516915 0.847749 0.880545 0.427307 0.167159 0.0229589 0.00219788 0.00637087 0.00424205 0.000358689
-0.00100666 -0.000467289 -0.000309719 0.00282384 0 0.608758 0.612241 0.628413 0.680443 0.862442
1.85059 2.13635 5.13444 5.58842 4.82584 32.5729 36.4578 52.0264 45.9825 4.75875
4.90457 3.39106 3.42668 2.68544 4.08896 0.840967 0.808414 0.787947 0.805702 1.39708
1.78605 1.84582 0.992308 0.482512 0.349747 0.127646 0.0135547 0.000419776 0.0068728 0.00608982
0.00254778 0.00114097 0.00146095 0.00204703 0.00348589 0 0.607882 0.61076 0.623981 0.665569
3.25235 3.7508 4.68277 4.76068 34.3591 32.6982 44.623 50.7636 0.801871 0.781615
0.940175 1.70278 2.62744 1.14241 0.0803379 -4.87968 -5.29998 -2.7478 -0.228072 0.191127
0.0732225 -0.00557531 -0.0109666 -0.0010055 0.000844758 -0.00120708 -0.00173415 -0.000833016 0.000294375 0.00127743
0 0.606913 0.609138 0.619155 0.649594 0.740556 2.747 1.73253 5.18949 3.29336
0.558625 -0.673555 0.698207 0.311476 0.31323 0.143248 -1.70889 0.673912 0.281969 -0.973862
-0.39352 0.0979839 0.0646997 -0.00300542 -0.0109577 -0.00108535 0.00144081 -0.000366159 -0.000886842 -1.94968e-05
0.00104812 0.00156098 0 0.605948 0.607528 0.614309 0.633474 0.677089 0.692971 0.823935
1.15931 0.32496 0.62225 0.613533 0.618625 0.656837 0.62595 0.566989 0.384315 0.0599144
-0.564128 -0.377427 0.0462341 0.0592216 -0.00441857 -0.0151791 -0.00441368 -0.000777985 -0.00209884 -0.00237444
-0.00133919 -0.000153553 0.000432598 0 0.605085 0.606072 0.609888 0.566334 0.606856 0.606895
0.590879 0.49586 0.427339 0.0775754 -0.435143 -0.348617 -0.000945134 0.0479962 -0.00796786 -0.0188235
-0.00649639 -0.00177321 -0.00269677 -0.00278938 -0.00165413 -0.000403022 0.000253451 0 0.604406 0.6049
0.606346 0.495354 0.605917 0.595339 0.570566 0.458219 0.427891 0.0869136 -0.364906 -0.332718
-0.0274561 0.0429153 -0.00836595 -0.0199052 -0.00724782 -0.00218815 -0.00301524 -0.00304389 -0.0018616 -0.000584143
0.000118151 0 0.603968 0.604119 0.604005 0.59951 0.457097 0.564298 0.425739 0.0900099
-0.342543 -0.327578 -0.0357468 0.041387 -0.00846112 -0.0203225 -0.00760603 -0.0024165 -0.00317393 -0.00314079
-0.00191604 -0.00061892 0.000104634 7.69581e-05 0.603814 0.603837 0.603163 0.596991 0.563788 0.444804
-10.2831 -11.1409 -11.7888 70.4823 60.0711 43.8848 29.6715 2.93348 1.71073 4.41761
5.06708 4.13374 4.5483 6.18051 5.39649 2.02336 1.7333 2.13922 2.95673 3.66509
3.35877 3.96351 2.24219 1.9093 6.04921 56.2518 39.446 1.93255 2.25839 3.63432
4.7333 2.15372 -4.52873 -11.204 -9.84269 -3.18707 8.46573 7.0036 11.902 4.74914
17.4629 20.8185 9.13627 10.5165 2.577 1.49779 1.00078 1.6541 19.7298 36.9147
5.61259 39.6456 20.3296 18.8201 -58.7113 -58.4937 -58.7081 68.4635 68.3761 47.5625
44.797 3.40626 3.10566 -5.05146 0.32869 0.17771 -5.10122 2.58594 3.97934 3.93929
2.85367 1.82675 1.75325 1.62184 0.946708 0.756347 -1.36346 17.0061 28.1071 13.2976
7.27733 -56.4918 -56.2857 -58.7505 -58.6761 13.8791 19.1167 18.4865 -46.2629 -42.7063
-44.3837 -45.1183 -58.2404 -57.531 -57.5237 -57.6518 16.6102 15.8811 12.0015 -29.3616
-27.9768 -45.3722 -37.0581 -58.8431 -45.9951 -58.6657 -48.0767 11.0073 4.28633 10.5232
11.8701 9.10573 9.38146 9.66998 4.51084 11.129 0.889376 0.721975 3.71349 3.46706
4.06177 4.31529 47.7557 68.346 -58.798 -56.4131 6.50325 11.1332 -51.4288 -52.7353
-58.3966 4.47125 6.29516 6.46747 6.49751 -31.4161 -40.0158 -49.4265 -29.7828 64.4091
60.7936 41.657 41.4062 -44.0702 -56.0512 -11.5203 -8.57251 -0.434408 -24.524 -42.4491
42.9846 44.3114 64.3094 66.4805 -51.7711 -49.9383 -50.7144 0.313219 -9.685 -12.7177
-11.6919 -21.671 -24.8703 -57.8178 44.0411 21.8525 22.1465 11.7021 12.0187 12.1925
13.1434 22.0236 44.506 10.7978 12.4607 11.9011 13.2409 -58.6471 -58.6359 -58.0942
-58.0811 -57.4634 -56.847 -56.485 45.8203 66.8317 -58.3073 -58.5517 -58.9589 -58.2157
-29.7786 -34.9695 -32.6629 -13.6727 -1.55919 -4.87689 -50.5205 -50.161 -57.9745 -13.0696
0.168771 0.0868404 -13.2991 -58.2735 -56.7895 -51.2457 -12.4193 -10.158 -3.66316 1.59185
-7.39195 -5.62737 -18.6765 -38.4089 -41.4804 -36.3709 -52.2757 -53.2727 -53.0222 -4.14986
-17.5853 -18.3319 -4.76593 -56.0899 -52.019 -56.1232 -3.57975 -9.30498 -16.6184 -11.5822
67.5327 46.8701 -54.1653 -54.3239 -56.7665 -56.666 -56.1749 -53.6525 -57.0611 -53.21
-55.951 -58.9145 -59.0452 -59.0891 -32.1177 -77.0573 -96.0827 -101.037 -103.293 -102.856
-48.5957 -50.1798 -54.214 -48.2525 -49.9418 -98.1579 -99.4396 -71.3206 -34.3479 -58.4135
-59.2255 -58.9147 -56.2642 -57.1534 -57.224 -57.1481 -57.558 7.14086 6.07185 8.95839
-56.0292 -55.7138 -55.9339 -55.4246 -55.5483 -55.8183 -56.222 -55.0771 -55.0617 2.02368
1.81518 0.695142 1.20182 4.18084 4.55756 1.31878 -55.828 -56.306 -56.9421 5.79467
6.63145 2.77507 0.865169 3.13417 -32.0181 -38.0357 -37.2819 -31.6142 -54.4787 -54.9726
-57.9077 -57.6019 -54.9172 -55.7694 -38.9539 -43.3047 -43.1257 -36.983 -46.0694 -50.1038
-53.191 -53.3416 -52.1959 123.587 131.446 146.789 146.877 -58.0878 -56.1739 -56.4507
-57.8173 -57.6534 4.49467 2.22071 3.12688 4.71899 -9.76303 -3.94458 -5.88915 -8.92099
-11.8027 -39.0838 -36.9142 -25.6267 -27.3363 -32.1471 -39.102 -24.7873 -24.8316 31.1031
41.282 52.1234 37.9293 23.074 19.2695 34.2522 26.1459 0.67088 0.829091 1.988
34.0732 24.8978 17.0878 22.1788 2.86987 3.81408 4.4584 4.56806 3.67763 6.65213
6.756 4.57882 -9.35188 -8.23599 -1.37623 -10.2321 14.6873 9.14744 10.8226 -54.6107
-56.8616 -56.9921 -54.8051 -82.6172 -81.3349 -84.5779 -47.8907 -12.6792 -18.3243 -27.5821
-56.0098 -52.8405 -55.3589 -56.4237 -73.9964 -73.7071 -58.3229 -59.6013 -49.4642 -47.9839
-50.2253 -50.4301 3.73982 3.80189 -0.631197 6.00017 5.64989 4.65458 5.32833 5.74247
6.14582 -54.0931 -53.6253 -68.7168 -67.9261 79.0068 94.1021 85.7014 112.108 106.418
88.8406 90.155 161.849 164.18 153.359 121.629 98.4089 104.348 97.3045 117.642
-12.872 -26.9327 -31.2488 -5.83132 -26.1176 -52.0851 -41.731 -6.30848 93.724 101.222
86.8053 78.2734 96.6996 88.3963 107.607 148.463 158.215 167.405 165.142 106.625
102.902 159.632 -32.6465 -8.00626 -38.3327 -28.5288 -47.7113 140.207 140.076 115.6
110.58 110.241 115.505 139.6 138.983 108.131 167.23 170.835 172.006 172.297
173.708 186.646 186.835 174.815 173.267 -32.8938 -40.0243 -32.8533 -56.4231 -50.7745
-42.616 -41.863 -40.5986 -25.4957 2.80694 -2.55455 -0.593517 173.387 175.331 187.187
172.359 186.504 187.147 175.219 172.168 179.596 181.76 170.109 168.877 179.893
167.877 171.094 182.418 -52.6702 -37.9132 -36.6667 -55.7208 -55.7807 -55.8705 -36.4483
-46.2972 -36.5305 -36.9723 -45.8843 -45.8545 -3.40504 -9.27314 -25.1835 -25.2087 -32.8336
-43.4861 -32.8762 -32.58 -42.9218 -21.1431 -18.8455 -20.5904 115.417 140.136 138.121
139.031 114.674 109.303 170.034 169.908 170.476 167.739 136.395 108.393 113.571
137.146 -57.1109 -54.1484 -52.8017 -52.6304 -55.6841 -46.1631 90.1545 93.429 78.6877
-14.9299 -6.20982 -6.74427 -20.853 54.5345 56.3959 69.9965 73.6492 -55.8279 -55.0635
-55.365 -55.8225 -56.9985 -57.2377 -57.3848 -57.493 -56.1234 -56.2186 -55.7949 -55.9087
-134.872 -109.322 -77.7646 -95.631 -97.9928 -99.1049 -99.0969 -83.2059 -78.9104 -92.4467
-70.3829 -85.0335 -132.775 -136.442 -128.436 -96.1326 -96.8968 -54.7709 -54.2191 -54.9127
-56.0335 -56.3227 -53.8505 -53.7678 6.83485 7.37826 13.7709 16.4094 13.8647 -50.913
-50.1834 -45.6938 -45.9334 -46.0856 -45.8829 -45.856 -45.6404 12.9242 12.6596 16.8618
8.25029 8.05245 9.62497 10.1086 10.1341 8.49887 7.31316 8.0705 12.3958 15.7164
13.7272 0.772561 -0.855802 -3.04539 7.02776 6.20161 5.07814 6.41541 7.13565 -52.4884
-53.3565 -56.3195 -55.6512 -48.6558 -49.6162 13.6588 15.6317 17.0418 -46.7497 -49.6567
-49.7892 -46.4634 -45.6224 11.3473 11.0898 11.1323 9.54458 6.84096 -7.01949 -5.77993
5.47217 6.28982 6.25182 -48.5323 -48.8552 146.491 148.515 140.933 136.973 113.369
118.323 125.73 121.205 184.606 185.882 182.183 178.424 -55.6969 -55.6323 -53.0212
-52.9287 169.636 183.357 185.056 172.993 174.449 186.57 171.028 182.143 169.624
179.278 -16.9209 -19.1927 -23.948 -28.2081 -26.8078 -22.9226 -8.66163 -3.34361 -3.79109
-8.97348 -13.9907 -13.615 -1.03732 -9.0677 -9.9372 -15.024 -18.1516 -8.23052 -8.98437
-24.9568 -20.2351 -9.6579 -0.781281 -3.0524 6.07184 -3.45501 6.05458 6.81886 3.35647
3.89149 4.61491 4.17643 7.71836 6.09324 3.93928 5.79593 -18.91 -15.9928 -26.3241
-21.4582 -56.3861 -58.1257 -58.7182 -58.5832 3.01925 3.08806 5.04676 5.52956 4.28508
4.88771 -14.5768 -40.3178 -57.2356 -65.4453 -53.2751 -31.9289 -58.8957 10.752 10.2062
10.2294 -2.4738 0.190321 11.9792 17.2406 9.50065 23.7832 20.6667 10.4598 1.66613
6.82049 8.31393 13.115 11.5526 6.77485 -53.4886 -44.0189 -49.8817 -13.0753 -43.909
-24.9684 -60.6243 -83.7273 108.727 92.8098 106.228 108.407 112.772 111.912 172.882
172.005 173.256 172.572 171.274 185.962 185.963 185.198 -57.9673 -58.1839 174.484
-56.1739 -56.1721 -57.0941 -57.2568 -56.9661 -55.807 -149.386 -136.396 -136.28 -132.81
-156.968 -136.184 -132.374 -132.696 -119.385 -115.073 -80.4175 -73.1455 -73.438 -70.8446
-119.403 -121.065 -56.746 -55.7419 -54.6477 -57.1113 9.53921 7.16986 10.7003 8.23991
11.022 12.0539 12.4287 13.4021 14.1962 -55.2614 -54.3361 -56.2886 -55.0848 -53.1214
-52.8589 -52.9686 -54.9087 -5.98748 -0.487075 -1.42542 -4.61223 9.17668 9.54856 6.79902
5.84147 7.55913 9.54193 8.78173 6.70702 1.29618 8.1487 7.03957 6.8822 8.68419
10.4179 9.23205 12.0758 11.354 -54.6931 -55.1185 -55.1291 -55.2542 -55.4062 -55.2615
-54.7654 -52.7311 -54.0467 -54.0554 -54.0762 -51.052 -52.4417 -73.7774 -73.0067 -57.6166
-59.9034 -77.5798 -68.4157 -77.5292 -123.985 -128.579 -136.203 -79.5238 -97.5815 -107.428
-80.3843 -98.9246 128.764 113.603 148.527 151.75 -54.596 -53.8101 -54.9342 -54.9237
-53.1268 143.889 167.875 146.148 -48.9567 -48.1202 -48.5581 -49.3325 -49.14 -49.158
-49.0848 -47.5987 -8.08421 -9.37175 -11.9075 -11.0202 -14.8659 -17.0414 -19.1833 -16.9692
-17.8949 74.8155 85.5133 -58.5297 51.2404 76.5357 65.0043 75.612 61.0743 13.9985
11.1677 45.6165 36.5995 8.32442 9.1676 3.62386 5.28831 5.09565 7.77176 6.69887
7.06831 7.4525 8.25507 -52.7217 -52.2777 -52.0065 -52.5974 -1.03063 -0.516117 -1.08933
2.26489 5.69667 5.13842 7.09502 6.52376 -50.9235 -51.3271 -51.0525 138.202 136.285
171.187 184.779 189.084 189.371 186.862 185.338 -55.7595 -55.4641 -55.7852 -55.6076
-53.1616 -45.5694 -46.3939 -47.0166 -46.2256 -46.5543 -47.8443 -56.0365 -56.0614 -56.6532
-57.2976 -56.9994 -56.9836 -57.1432 -56.7547 -55.0701 -115.779 -111.411 -134.649 -111.009
-134.008 -122.182 -123.565 -133.401 -56.1388 -57.4572 -55.9009 -54.5447 13.7401 12.3601
11.3426 12.5288 12.7434 13.3939 -36.7157 -36.2021 -31.3976 -30.8558 -41.6992 -42.2275
-46.4046 -46.0172 -51.0813 -51.1295 -45.4854 -52.131 -51.7693 -6.18679 -0.950591 -11.4514
0.663957 2.10193 8.00901 7.54208 7.86806 4.28817 10.6822 7.34842 8.76174 10.2325
10.8771 10.7703 10.9117 12.6794 12.3497 2.37568 12.4142 14.8086 15.9781 3.87433
3.38211 3.11874 3.80066 -58.9197 -58.0742 -52.9025 -56.5084 -44.6795 -44.1557 -40.1257
-44.4825 -45.8876 -49.9326 -51.1325 -49.5861 -49.8027 -49.5677 -47.0368 -52.1672 -47.1795
4.19256 -48.2822 -49.5617 141.01 131.822 129.417 129.465 129.845 114.365 106.95
188.661 188.134 187.139 -50.6966 -51.0228 -1.26414 -0.695271 0.335876 -29.5476 -30.4668
186.057 186.892 180.369 183.329 181.876 181.505 -33.2376 -29.0684 -3.02705 -7.65783
-5.78433 -3.06638 -24.6619 -13.5078 -10.0993 -13.2943 -19.7342 -4.58311 80.868 56.514
60.8482 21.0669 21.434 68.0121 110.702 10.1608 7.19633 -2.27752 -2.53456 6.84736
7.64316 7.93222 6.12242 6.57588 24.5394 16.3023 -0.407491 19.7646 -1.76095 3.48207
8.17303 8.09458 68.0177 110.205 -54.6618 -55.774 18.1225 91.6821 109.044 100.396
92.4431 108.06 109.174 126.585 134.323 143.198 -55.819 81.7581 73.7736 50.617
12.5725 18.6305 16.8019 -75.4482 -56.8282 -56.8217 -56.8249 -55.2455 -55.1659 -59.8833
-55.4369 -59.8941 -60.4592 23.4658 -6.55567 5.97714 10.602 10.8336 -1.42613 -1.53115
-2.64982 -55.532 -54.0551 -1.01862 2.53856 2.8458 -57.5128 -56.9431 -56.1066 7.97404
7.66327 4.13094 -56.5917 41.669 49.882 -66.1117 -58.4849 17.8126 15.3284 8.9796
6.89677 5.0578 8.50332 6.94879 -54.0921 -54.056 -52.8796 -52.8012 -55.7721 -52.1651
-51.6854 -54.3859 -54.6932 -54.6791 -54.1595 -55.2709 -54.843 -54.6955 -54.4371 4.4835
-51.6761 -57.7469 -56.7121 100.524 129.162 144.72 155.183 168.096 162.93 160.741
148.743 188.243 -52.7986 -53.7276 -51.9508 -7.3512 -10.3836 -3.19479 -49.6471 -49.6746
-49.6412 -49.9101 -53.1133 -47.2099 -48.7243 -47.4996 -47.0199 -47.7205 28.8649 20.2957
-112.239 -119.835 -119.691 -120.328 -120.673 -73.8745 -96.4428 -73.8777 13.4239 17.0738
-10.9287 12.0587 11.5003 -5.50844 -7.08379 4.08357 2.47154 0.962195 0.615 -0.660271
-2.27602 -1.02021 4.12526 4.50697 0.572391 2.82023 4.48026 2.38671 1.29871 13.3578
17.6797 -50.0321 5.49571 12.7656 8.51178 16.4799 8.48256 11.18 14.1984 15.9708
4.78213 4.99217 6.49952 5.91611 -2.09749 -4.02615 -6.28798 -6.18841 4.89557 1.6754
4.3842 9.44869 15.3398 16.5393 8.23854 5.67631 3.05138 2.7387 7.18807 10.6603
11.3153 11.9583 11.0965 5.71544 -3.55141 5.59008 -2.79319 3.21653 -3.56046 2.45827
11.0237 8.34621 12.4081 7.00501 9.50019 11.4313 10.8229 10.5217 7.96586 8.64606
9.1713 9.42262 7.93239 7.38268 7.40022 6.03858 -5.48562 -9.00166 -7.21412 6.5154
5.91728 7.99756 6.28198 -9.22119 -10.9851 1.09357 7.07824 5.9032 -1.67042 5.68687
-136.675 -137.623 -137.852 10.2938 -55.5692 -54.5231 -54.5719 5.23909 9.91103 5.3154
8.38583 11.0181 -55.7249 -55.6911 -55.0509 -54.7392 -60.9355 -60.435 -60.9246 -68.9787
-115.997 -119.823 -113.685 -120.545 -48.9053 -49.4318 -47.4075 -47.1093 -47.3697 -47.0855
-14.6597 -14.659 -17.0767 -52.5288 -52.3447 -52.1051 5.13816 1.51151 4.98916 4.95997
-51.9061 -52.3366 -52.4589 141.767 151.116 -55.2619 -50.6858 13.3988 13.9814 11.5849
7.20232 11.4616 18.7307 4.22706 3.34172 4.67981 3.68461 -53.2169 -57.2072 -57.0211
-55.2406 7.77126 15.0872 11.1255 4.09745 4.24863 10.1004 8.84853 9.53445 8.64572
10.4218 12.4377 10.2867 5.83707 8.59313 8.24033 -54.0754 -50.0922 -48.475 91.2391
80.2722 84.2342 66.7664 72.7502 -4.80672 -2.92228 0.326377 -1.45245 7.64768 8.1584
7.69866 8.28881 8.04459 7.54008 7.08795 116.839 106.801 94.7602 -73.8023 -57.2386
-55.9339 -54.7981 -54.6123 -54.2421 -54.214 163.481 139.763 161.89 162 7.74
4.62236 10.7122 11.4227 7.21591 8.55753 7.44463 6.91451 6.16556 2.75559 -2.3977
4.77675 5.41874 6.00315 4.37371 6.68731 14.496 9.07885 -12.855 15.6232 14.2881
7.63609 10.7475 16.0285 9.16775 -12.7044 -13.6257 -11.6985 -2.85512 -4.89067 -13.199
7.24742 5.30245 -14.7388 -16.3527 7.20103 4.86233 -1.01756 -3.89762 -54.9466 -45.8929
13.167 1.94322 0.26822 -0.12745 6.0081 5.56523 6.4993 6.08747 6.04373 5.62701
0.345857 6.29854 6.93356 -0.39504 5.74981 4.77031 7.22287 6.71372 6.13773 106.21
86.6796 122.026 123.811 5.22086 4.94757 3.48467 -55.1586 5.15029 6.13982 5.91702
-9.57905 -12.552 -0.194311 6.29583 6.78815 5.4269 8.11215 5.2359 6.93195 3.92013
37.4359 -53.1374 -55.1164 -54.6222 -54.5807 -54.6547 -2.90704 -4.27968 -12.5897 -12.4585
-12.4807 -3.43388 9.41234 3.13812 5.98926 7.08167 2.60608 2.38974 0.1142 -0.852235
-10.9041 -5.20847 -4.10012 -11.2781 -4.16059 -12.1529 5.63361 -11.3806 -12.4163 -2.43864
1.23141 6.40085 6.41189 5.83904 8.90121 0.291953 6.70676 -3.09882 -1.08463 4.3878
-0.728599 7.28344 4.89485 -9.89519 9.06679 -0.626858 6.19536 1.06039 1.45379 4.85198
5.21036 4.29163 5.00991 3.13995 7.70098 8.95126 5.49796 6.11424 0.991462 3.47473
11.1289 5.57394 0.848992 -0.535228 3.65718 173.153 176.977 176.116 181.029 169.128
168.098 172.678 179.948 180.94 69.7818 73.9641 55.1755 -56.1344 -41.4384 -38.5528
-36.8077 -30.8925 -43.8076 -51.8598 -51.5087 -55.2635 -46.7925 100.774 154.475 162.113
155.254 146.991 -56.6126 -56.2098 -56.5438 -56.3171 -55.8179 -56.2776 -54.895 -55.1991
-55.0402 4.07633 -0.215006 171.242 -18.3023 186.018 190.265 189.413 -51.2876 -47.2526
182.754 185.885 186.061 -16.4044 -51.0471 85.2708 -54.9741 -55.1046 -55.3611 -55.3277
-49.4693 189.386 -2.30271 189.505 185.525 189.099 7.39134 -64.2624 110.645 109.957
-55.8765 4.62243 -51.7272 -53.0365 -51.8414 -138.056 138.737 -54.8205 159.208 -51.9644
-120.753 -120.671 72.2801 6.98879 2.63211 168.085 164.698 -15.4083 139.848 191.109
190.004 185.408 189.457 190.794 189.789 172.798 191.164 186.785 189.959 191.199
0.614502 0.610039 0.635348 0.70442 0.918212 1.62174 2.2072 -3.98543 1.35438 0.0250066
-4.09887 -5.8681 0.408911 0.0900926 -0.00181978 0.00511876 0.0101847 0.00557461 0.000958897 -0.000637459
-0.000361774 0.000187879 0.00111668 0.000606966 -54.0458 -52.3259 -134.022 -134.577 -47.9368 -48.3935
-49.0579 -47.778 -48.2772 -48.9844 -49.6361 -47.2845 -94.9983 -74.6534 -48.7756 -47.1376
-74.0925 -48.6994 -51.16 -51.5153 -50.6323 -99.5774 -111.22 -129.52 -119.821 -119.64

U 3 2021 float
20.0062 -0.0456714 -0.215954 20.0439 -0.0306384 -0.074044 19.929 -0.0063949 -0.0965057 19.9355 -0.0556598
-0.606756 20.0175 -0.0594212 0.0399721 20.0178 -0.0593162 0.0400049 20.1681 -0.0782779 0.0575323
20.2328 -0.0864445 0.0655709 20.2784 -0.0914038 0.149374 20.2907 -0.116249 0.263742 20.2097
-0.117527 0.208559 19.9545 -0.0473497 0.0198883 19.9967 -0.0547599 0.0183701 20.0037 -0.0530325
0.00698032 19.8532 -0.0246389 0.0177479 19.852 -0.0214086 0.0142116 20.0059 -0.0527406 0.00189402
19.8543 -0.0199968 0.00972995 20.0044 -0.0519259 0.000516079 19.8534 -0.0183476 0.00883285 20.0026
-0.0511078 -1.4065e-05 19.8521 -0.0167992 0.00853223 20.0011 -0.0503509 -0.000293408 19.851 -0.0154672
0.00829687 19.9996 -0.0496701 -0.000473677 19.8499 -0.0143083 0.00807973 19.9979 -0.049016 -0.000598655
19.8488 -0.0132516 0.00789005 19.9962 -0.0483733 -0.000695741 19.8477 -0.0122908 0.00768948 19.9946
-0.0477437 -0.000730481 19.8467 -0.0114098 0.00759847 19.9926 -0.047093 -0.000820186 19.8456 -0.010482
0.00731912 19.8452 -0.0099996 0.0070177 19.9923 -0.0468846 -0.000860199 19.9996 -0.00034143 3.12881e-05
20 0 0 20 0 0 19.9996 -0.000341532 7.87019e-05 19.9983
-0.000788357 9.38651e-05 19.9984 -0.000798046 0.000278723 19.9942 -0.00155185 0.000367999 19.9941 -0.00151679
0.000999607 19.9788 -0.00279672 0.000336051 19.9796 -0.00312023 0.00357723 19.9464 -0.00544575 -0.00905769
19.9363 -0.00619663 -0.00796268 19.9389 0.00230041 -0.014323 19.9277 -0.00541947 -0.0294999 19.9061
0.00526981 -0.0609899 20.2333 -0.072612 0.001824 20.0485 -0.0287984 -0.0566631 20.2354 -0.0716965
0.00508678 19.9272 -0.0892668 0.030538 20.0245 -0.118684 0.0819228 20.2326 -0.086413 0.0650517
19.8551 -0.0298642 0.0234686 19.3073 0.120183 0.0101464 19.3395 0.117619 0.011274 19.3675
0.111886 0.0113329 19.3887 0.107596 0.0120204 19.407 0.103811 0.0125269 19.4239 0.100218
0.0127041 19.4399 0.0968216 0.0127103 19.4549 0.0936255 0.0126387 19.4692 0.0905783 0.0124984
19.4823 0.087696 0.012384 19.497 0.0848803 0.0121003 19.5058 0.0834317 0.0118392 20
0 0 19.9996 -0.000342147 0.000137356 19.9985 -0.000796578 0.000490329 19.9945 -0.00152293
0.0017188 19.9801 -0.00324374 0.00603193 19.9197 -0.00875522 0.0107379 19.9195 -0.00791411 0.00100768
19.8499 -0.0165455 -0.0957226 19.7933 -0.0204752 -0.0681336 19.9552 -0.0507068 -1.02483 20.4348
-0.067042 -0.93589 20.2161 -0.0531169 -0.509572 19.9303 -0.0556768 -0.636255 20.3093 -0.164075
0.453218 20.3097 -0.164961 0.456679 20.0985 -0.250247 0.580933 19.9889 -0.239439 0.299971