# vtk DataFile Version 2.0
sampleSurface
ASCII
DATASET POLYDATA
POINTS 2021 float
-0.500032 0 0.11501 -0.499951 3.38813e-21 0.0392727 -0.789037 8.47033e-21 0.120673 -0.500013 -1.35525e-20
0.193965 1.00003 0 0.0485099 1.00003 0 0.0478584 0.475202 0 0.0353615
0.250044 1.41878e-20 0.0305359 0.2506 -5.42101e-20 0.117067 0.251301 0 0.203885 0.364989
0 0.203772 1.75002 0 0.113255 1.75002 0 0.0564279 2.50001 6.89146e-18
0.059229 2.21354 0 0.250758 2.50001 0 0.252875 3.25001 -3.47927e-17 0.0598775
3.25001 -1.69407e-21 0.253888 4.00001 5.60566e-18 0.0599857 4 0 0.253986 4.75
-1.79088e-17 0.0599988 4.75 8.47033e-22 0.253998 5.5 -2.79246e-17 0.0599999 5.5 -4.23516e-22
0.253999 6.25 1.01187e-17 0.06 6.25 0 0.254 7 2.93732e-17 0.06
7 0 0.254 7.75 -2.65294e-17 0.06 7.75 0 0.254 8.5
1.8923e-17 0.06 8.5 0 0.254 9.25 -2.88552e-17 0.06 9.25 -5.29396e-23
0.254 10 -2.64698e-23 0.254 10 0 0.06 -4.24997 0 0.0599042
-5 0 0.0599861 -5 0 0.253986 -4.24997 0 0.253912 -3.49995
0 0.0593815 -3.49994 0 0.253441 -2.74993 0 0.0570188 -2.74991 0
0.251316 -1.99991 0 0.0492276 -1.99987 0 0.242776 -1.24992 -1.69407e-21 0.03
-1.24985 1.23328e-17 0.222327 -1.24989 3.38813e-21 0.125756 -0.874924 2.08116e-17 0.03 -0.874929
0 0.122356 -0.124951 -8.47033e-22 0.03 -0.499941 0 0.03 -0.124922 -8.47033e-22
0.0385291 1.00021 0 0.231242 0.625368 0 0.203537 0.25004 -2.11758e-22 0.03
1.75003 0 0.247334 1.92873 1.69407e-21 0.441438 2.50001 0 0.447397 3.25
-1.69407e-21 0.447898 4 0 0.447986 4.75 0 0.447997 5.5 -4.23516e-22
0.447999 6.25 4.23516e-22 0.447999 7 0 0.448 7.75 -1.05879e-22 0.448
8.5 0 0.448 9.25 0 0.448 10 -2.64698e-23 0.448 -5
-8.47033e-22 0.447985 -4.24997 0 0.447919 -3.49993 0 0.4475 -2.74988 0
0.445609 -1.9998 6.77626e-21 0.437758 -1.24969 1.61411e-17 0.417681 -1.24976 -6.77626e-21 0.31973
-0.875161 7.70461e-18 0.216228 -0.875403 0 0.312476 -0.499924 -8.74138e-19 0.250039 -0.312433
0 0.250037 -0.312436 0 0.200025 -0.499924 0 0.200026 0.250062 3.38813e-21
0.24921 0.250039 -1.69407e-21 0.250046 0.250032 0 0.300069 0.437526 3.05948e-18 0.300066
0.625026 0 0.30005 1.00072 -8.23994e-18 0.326497 1.00196 0 0.423 1.75013
0 0.439575 1.75013 1.77877e-20 0.448245 1.00135 0 0.537141 1.00002 0
0.61834 1.74999 2.71051e-20 0.633055 2.49999 -3.38813e-21 0.641448 3.25 0 0.641907
4 -1.69407e-21 0.641985 4.75 -8.47033e-22 0.641996 5.5 -4.23516e-22 0.641998 6.25
0 0.641999 7 0 0.641999 7.75 0 0.642 8.5 5.29396e-23
0.642 9.25 -5.29396e-23 0.642 10 0 0.642 -5 0 0.641985
-4.24997 -1.69407e-21 0.641926 -3.49993 0 0.641557 -2.74988 0 0.639897 -1.99989
6.77626e-21 0.63382 -1.25099 2.55465e-18 0.614606 -1.25 -2.71051e-20 0.515981 -0.878244 0
0.50789 -0.875961 2.71051e-20 0.459694 -0.875609 0 0.410432 -0.498432 0 0.400603
-0.498071 -1.70762e-18 0.413126 -0.450805 0 0.413349 -0.45095 0 0.400955 0.250009
1.89735e-19 0.412703 0.25 2.71051e-20 0.425212 0.296872 1.00289e-18 0.425187 0.343754 -2.71051e-20
0.425153 0.343763 0 0.400146 0.250006 0 0.400175 1.00162 1.41488e-17 0.520353
-2 4.23516e-22 0.820145 -2.09502 -2.11758e-22 0.830091 -2 0 0.829497 -1.25123
0 0.813251 -1.25126 0 0.713737 -1.25101 6.77626e-21 0.62198 1.00059 0
0.714169 1.00094 0 0.809205 1.75018 0 0.82775 2.5 0 0.835521
3.25 0 0.835917 4 -1.69407e-21 0.835986 4.75 -8.47033e-22 0.835996 5.5
0 0.835998 6.25 0 0.835999 7 0 0.835999 7.75 0
0.836 8.5 0 0.836 9.25 0 0.836 10 0 0.836
-5 -8.47033e-22 0.835986 -4.24997 0 0.835935 -3.49995 0 0.835616 -2.74991
0 0.83419 -0.970118 0 0.703382 -0.87455 0 0.699864 -0.874264 -2.71051e-20
0.649852 -0.874033 -2.71051e-20 0.599873 -0.49698 0 0.599585 -0.497345 -9.21572e-19 0.612046
-0.450014 0 0.611892 -0.44938 2.71051e-20 0.599454 -2.00002 0 0.84097 -1.84639
-3.38813e-21 1.02215 -1.25185 0 1.01276 -0.896512 -3.38813e-21 0.900668 -0.908183 6.77626e-21
0.801076 -0.904022 -1.86347e-20 1.00093 0.624925 0 0.799916 0.249931 0 0.799891
0.249978 0 0.899916 0.249997 0 0.999939 0.999987 0 0.999957 1.75061
-2.1684e-19 1.02409 2.50003 0 1.0296 3.25 -1.69407e-21 1.02993 4 0
1.02999 4.75 0 1.03 5.5 0 1.03 6.25 2.11758e-22 1.03
7 0 1.03 7.75 0 1.03 8.5 5.29396e-23 1.03 9.25
0 1.03 10 0 1.03 -5 0 1.02999 -4.24998 0
1.02994 -3.49996 -8.47033e-22 1.02968 -2.74996 0 1.02849 -2.00026 0 1.02458
-0.87482 0 0.799893 -0.87491 0 0.899919 -0.49993 0 0.799862 -0.499958
7.6233e-19 0.849889 -0.312476 0 0.849885 -0.312472 0 0.799853 -1.25001 8.04681e-21
1.19601 -0.499979 5.29396e-23 1.10737 -0.731886 2.11758e-22 1.19997 -0.499981 0 1.19997
-0.124987 0 0.999933 -0.477759 -5.29396e-23 0.999933 -0.487556 -1.45584e-22 1.09995 0.250008
0 1.19997 1 0 1.19997 1.7507 0 1.22203 2.50003 -1.35525e-20
1.22368 3.25 0 1.22394 4 0 1.22399 4.75 4.23516e-22 1.224
5.5 0 1.224 6.25 2.11758e-22 1.224 7 0 1.224 7.75
1.05879e-22 1.224 8.5 0 1.224 9.25 0 1.224 10 2.64698e-23
1.224 -5 4.23516e-22 1.22399 -4.24999 -4.23516e-22 1.22395 -3.49998 0 1.22374
-2.75001 0 1.22279 -2.00077 0 1.21965 -1.24997 4.23516e-22 1.19997 -0.499969
-5.29396e-23 0.999933 -0.874942 0 0.999936 -0.499979 -1.32349e-23 1.09995 -2.75001 0
1.36967 -3.18711 4.23516e-22 1.41751 -2.75001 4.23516e-22 1.4171 -2.00072 3.38813e-21 1.29692
-2.00065 0 1.41474 -1.25823 6.35275e-21 1.40014 -0.980416 0 1.39998 -0.499986
0 1.39998 0.250009 0 1.39998 1 0 1.39998 1.75054 0
1.41682 2.50002 -1.35525e-20 1.41776 3.25 0 1.41796 4 4.23516e-22 1.41799
4.75 0 1.418 5.5 0 1.418 6.25 0 1.418 7
0 1.418 7.75 0 1.418 8.5 0 1.418 9.25 0
1.418 10 0 1.418 -5 0 1.41799 -4.24999 0 1.41797
-3.49999 -4.23516e-22 1.41781 -1.24998 0 1.39998 -2.80392 1.32349e-23 1.61143 -2.75
-1.32349e-23 1.6114 -2.0003 0 1.60983 -1.25396 2.64698e-23 1.60004 -1.12789 2.64698e-23
1.59999 -0.49999 1.05879e-22 1.59999 0.250008 0 1.59999 1.00001 4.23516e-22 1.59999
1.75038 0 1.61122 2.50002 0 1.61184 3.25 -4.23516e-22 1.61197 4
-4.23516e-22 1.61199 4.75 0 1.612 5.5 0 1.612 6.25 0
1.612 7 0 1.612 7.75 5.29396e-23 1.612 8.5 2.64698e-23 1.612
9.25 -1.32349e-23 1.612 10 -1.32349e-23 1.612 -5 0 1.61199 -4.24999
0 1.61198 -3.49999 0 1.61187 -1.24999 0 1.59999 -2.75 -1.32349e-23
1.63714 -2.64195 -2.11758e-22 1.80559 -2.00012 -8.47033e-22 1.80492 -1.25741 0 1.80004
-1.19082 -7.94093e-23 1.8 -0.499992 1.05879e-22 1.79999 0.250006 2.11758e-22 1.79999 1
0 1.8 1.75023 0 1.80561 2.50001 3.38813e-21 1.80592 3.25 0
1.80599 4 0 1.806 4.75 2.11758e-22 1.806 5.5 0 1.806
6.25 0 1.806 7 0 1.806 7.75 0 1.806 8.5
2.64698e-23 1.806 9.25 0 1.806 10 0 1.806 -5 0
1.806 -4.25 -2.11758e-22 1.80599 -3.49999 0 1.80594 -2.75 -1.05879e-22 1.8057
-1.24999 0 1.8 -2 -4.76456e-22 1.98532 -1.20969 -1.65436e-23 2 -0.499993
0 2 0.250006 0 2 1 0 2 1.75 0
2 2.5 0 2 3.25 0 2 4 0 2
4.75 -1.05879e-22 2 5.5 0 2 6.25 0 2 7
5.29396e-23 2 7.75 0 2 8.5 0 2 9.25 0
2 10 -1.32349e-23 2 -5 2.21817e-18 2 -4.25 1.05879e-22 2
-3.49999 0 2 -2.74999 0 2 -1.99999 -5.29396e-23 2 -1.24999
3.30872e-24 2 0.0956945 -5.42101e-20 0.203879 0.0632748 0 0.203876 0.0625511 0
0.250042 -0.403589 6.77626e-21 0.40138 -0.405779 7.7927e-19 0.38799 -0.406379 -6.77626e-21 0.375196
-0.499567 -1.35525e-20 0.375265 0.250006 -6.50521e-19 0.375144 0.156247 0 0.375155 0.156237
9.41901e-19 0.400212 0.203129 0 0.400201 0.249796 0 0.59991 0.249852 -1.0842e-19
0.587433 0.202953 0 0.587417 0.202888 6.50521e-19 0.599901 0.625121 -6.77626e-21 0.499953
0.717439 6.77626e-21 0.504955 0.625095 6.77626e-21 0.475379 0.343596 1.0842e-19 0.599918 0.343639
0 0.574939 0.296781 0 0.574964 0.249926 0 0.574977 0.62499 -4.2826e-18
0.549927 0.624917 4.55365e-18 0.599925 0.203133 0 0.412725 -0.449046 0 0.587135
-0.496581 5.42101e-20 0.587161 0.625036 -9.32414e-18 0.40006 0.625067 1.13164e-18 0.450032 0.249704
0 0.624881 0.155871 0 0.599866 0.155839 1.95156e-18 0.624853 0.249886 1.35525e-20
0.749873 0.062411 0 0.749846 0.0624478 -4.26227e-18 0.799869 -0.312472 0 0.749804
-0.499901 -3.38813e-21 0.749824 -0.691227 0 0.30453 -0.499912 3.02221e-18 0.300065 -0.875784
-3.11708e-18 0.361353 -0.592465 -2.71051e-20 0.40036 -0.499854 0 0.350135 -0.687111 1.35525e-20
0.350117 -0.68656 -2.71051e-20 0.40021 0.437526 -1.35525e-20 0.400108 0.437522 6.77626e-21 0.350086
0.250015 -2.51399e-18 0.35011 0.625027 3.38813e-21 0.350064 -0.592287 0 0.425286 -0.498048
0 0.425444 -0.873902 5.42101e-18 0.54992 -0.496663 0 0.574746 -0.591532 0
0.574798 -0.591729 0 0.599734 -0.149108 0 0.406489 -0.149477 -5.29396e-23 0.403592
-0.149678 0 0.406489 -0.451876 -2.1684e-18 0.499977 -0.451579 0 0.487563 -0.498366
0 0.487552 -0.498515 -1.0842e-19 0.499993 0.437553 0 0.450075 0.437532 -6.07153e-18
0.425113 0.254621 -1.25361e-19 0.496697 0.26485 -5.42101e-20 0.498023 0.264831 0 0.496529
0.254636 -2.30393e-19 0.49668 0.570241 0 0.499932 0.437665 -2.71051e-20 0.474991 0.437859
-2.71051e-20 0.49988 0.437372 -1.0842e-19 0.599915 0.249722 3.25261e-19 0.649874 0.43732 -5.42101e-20
0.649899 0.624872 0 0.649914 0.624883 -3.95734e-18 0.699913 0.43734 6.83047e-18 0.699894
0.249817 0 0.699869 -0.592227 0 0.624743 -0.498071 -2.71051e-20 0.624658 -0.499769
6.77626e-21 0.69979 -0.687025 0 0.699824 -0.150854 -1.03677e-18 0.599678 -0.151059 -6.77626e-21
0.605522 -0.127339 6.77626e-21 0.605681 -0.127867 0 0.599582 -0.406139 -4.40457e-20 0.699754
-0.406113 0 0.674749 -0.499634 0 0.674774 -0.18433 -4.23516e-22 0.674527 -0.163626
-4.23516e-22 0.678958 -0.165125 0 0.674537 -0.171868 4.23516e-22 0.674524 -0.14924 3.34737e-19
0.400169 -0.125737 0 0.400165 -0.12551 0 0.393854 -0.149076 -2.11758e-22 0.393877
-0.499925 -2.61564e-18 0.325088 -0.406241 0 0.325087 -0.4062 0 0.300069 -0.124901
0 0.300062 -0.218633 -3.27294e-18 0.299673 -0.218596 1.35525e-20 0.324664 -0.124851 0
0.325085 -0.126061 7.86047e-19 0.406473 -0.0785222 1.30782e-18 0.400166 -0.126118 3.38813e-21 0.41275
-0.0785648 0 0.412729 0.240678 1.0842e-18 0.500153 0.252614 -2.1684e-19 0.498317 0.252386
1.0842e-19 0.496231 0.241035 0 0.496114 0.228892 -1.35525e-20 0.496204 0.228835 6.77626e-21
0.498715 0.229819 2.71051e-20 0.500074 0.25248 0 0.499935 0.240657 -1.6263e-19 0.500957
0.264863 0 0.500154 0.264689 0 0.500951 0.437443 0 0.549896 0.437406
[...]
POINT_DATA 2021
FIELD attributes 2
p 1 2021 float
1.93366 1.37157 2.32026 4.27067 0.0662966 0.0641659 -4.17692 -6.00655 -7.63841 -6.07595 -4.25525
0.497505 0.46475 0.112844 0.328815 0.176798 0.00670154 0.0308096 0.00954286 0.0187247 0.0133041
0.0191885 0.00821091 0.0126774 0.00296197 0.00634279 0.000455398 0.00315149 3.65521e-05 0.00233402 0.000322603
0.00219781 0.00129554 0.0035738 0 0 0.608413 0.603987 0.603838 0.608131 0.629107
0.628223 0.698375 0.695295 0.917757 0.914723 1.62108 1.74364 1.75595 2.19919 2.43497
-4.07176 1.30269 -4.12511 0.662956 -0.0986853 -5.99643 0.574762 0.452358 0.196252 0.0353969
0.0138096 0.0147057 0.00919399 0.00312931 0.000184847 -0.000233343 -0.00064788 0.00253017 0 0.603411
0.607369 0.625838 0.686402 0.894392 1.93988 2.00974 3.08487 3.82991 7.20923 -3.46047
-1.16524 4.48986 -5.59225 -5.5835 -2.16707 0.311484 0.808536 1.0477 0.938201 0.532415
0.528372 0.792108 0.815704 0.442054 0.17586 0.0293978 0.00861306 0.011689 0.00795262 0.00264637
0.000147582 2.80674e-05 -0.000136149 0.00301786 0 0.602731 0.606194 0.622249 0.673914 0.854959
1.8395 2.12116 5.1107 5.55772 4.7923 32.475 36.3683 51.9167 45.8638 4.6885
4.81519 3.36356 3.41955 2.63624 4.03433 0.787239 0.801825 0.781431 0.799157 1.39216
1.77809 1.83495 0.957933 0.474666 0.3574 0.13238 0.0161806 0.00321679 0.00955077 0.00812355
0.00394915 0.00198286 0.00194138 0.0023597 0.00381871 0 0.601867 0.604732 0.617874 0.659252
3.24779 3.7474 4.67335 4.74642 34.396 32.747 44.729 50.8553 0.795367 0.776378
0.937304 1.70432 2.62922 1.14356 0.0577378 -4.85408 -5.27723 -2.73311 -0.22804 0.194733
0.0761722 -0.00451894 -0.00964099 0.000853984 0.00269204 0.000432699 -0.00046393 4.50252e-05 0.000879593 0.00167612
0 0.600912 0.603131 0.613108 0.643484 0.734707 2.74944 1.73437 5.25208 3.3412
0.632527 -0.551484 0.695152 0.323031 0.317261 0.150453 -1.67997 0.695288 0.294053 -0.966479
-0.393126 0.101292 0.067958 -0.00161055 -0.0094534 0.00102742 0.00361216 0.00155615 0.000562695 0.000868521
0.00147716 0.00171991 0 0.59996 0.601542 0.608323 0.627551 0.671692 0.689911 0.844837
1.1608 0.336864 0.616441 0.607667 0.612853 0.65156 0.620855 0.563967 0.38368 0.0634914
-0.56 -0.376872 0.0490902 0.0622432 -0.00306813 -0.0138063 -0.00244966 0.00120006 -0.000458046 -0.00125451
-0.000805529 -7.15486e-05 0.000312779 0 0.599108 0.600105 0.603955 0.563335 0.601173 0.601229
0.585973 0.492838 0.425176 0.0797761 -0.43198 -0.347846 0.00157424 0.0507292 -0.00665736 -0.0175008
-0.00460445 8.51876e-05 -0.0012283 -0.00183149 -0.00122688 -0.000360015 0.000142868 0 0.598438 0.598947
0.600453 0.492342 0.600258 0.589849 0.565767 0.455181 0.425219 0.0883151 -0.362247 -0.331723
-0.0251488 0.0454461 -0.00700777 -0.018544 -0.00536991 -0.000378588 -0.00161143 -0.00212912 -0.00142688 -0.000486783
7.28721e-05 0 0.598006 0.598175 0.598136 0.593903 0.454076 0.559534 0.422956 0.0911474
-0.340048 -0.326499 -0.0335275 0.0438571 -0.00705334 -0.0189245 -0.00572484 -0.000619281 -0.00178357 -0.00222813
-0.00146355 -0.000488051 9.03398e-05 6.00169e-05 0.597854 0.597896 0.597302 0.591405 0.559027 0.441799
-10.1712 -11.0239 -11.6144 70.3373 59.8926 43.6961 29.5525 2.91095 1.87343 4.54392
5.03279 3.62679 3.83532 5.31606 4.80223 1.93978 1.65703 2.0675 2.57978 3.13044
2.63581 3.09314 2.10611 1.76444 6.00536 56.3281 39.4798 1.87832 2.19899 3.44451
4.25448 2.08813 -4.46853 -11.1213 -9.78463 -2.96333 8.56315 6.93549 11.7959 4.70758
17.3863 20.7022 9.07132 10.4585 2.51359 1.43696 1.01709 1.59588 19.6588 36.8323
5.59273 39.6659 20.321 18.8228 -59.1004 -58.9014 -59.1055 68.431 68.331 47.5151
44.758 3.43648 3.1027 -5.91446 -0.143133 -0.282645 -5.96565 2.49956 3.98169 3.8461
2.61294 1.75993 1.59743 1.48716 0.868288 0.665736 -1.32136 17.0188 28.1621 13.3769
7.28674 -57.334 -57.2274 -60.2155 -59.916 14.0902 19.368 18.5745 -45.9095 -42.4698
-44.1716 -44.864 -58.6602 -57.5306 -57.6818 -58.107 16.4954 15.6831 11.8331 -29.3092
-28.2263 -45.7997 -36.9929 -58.8961 -44.5356 -58.5794 -46.3909 10.3747 3.68269 10.0829
11.3303 8.47161 8.74096 9.03694 3.87479 10.4929 0.415179 0.222964 3.41577 3.15604
3.92427 4.08385 47.7278 68.3267 -59.9508 -56.9856 5.8228 10.4923 -51.2107 -52.2123
-59.1479 4.24809 5.61196 6.2886 6.4123 -31.2628 -40.0545 -48.7989 -29.3421 64.3315
60.7061 41.5798 41.3353 -42.9389 -56.1696 -11.2309 -7.93161 -0.261792 -23.7215 -42.4384
42.9848 44.3257 64.3524 66.5068 -52.238 -50.1383 -50.6967 0.378579 -9.44029 -12.6646
-11.5954 -21.6445 -25.0222 -59.1663 43.9847 21.8001 22.1044 11.654 11.9619 12.1573
13.0997 21.9923 44.4861 10.7878 12.4451 11.8785 13.2111 -58.6284 -58.5551 -57.5858
-57.5739 -57.8094 -57.271 -56.8791 45.7562 66.7643 -58.2832 -58.0083 -58.5411 -58.1902
-27.4832 -32.3342 -29.8201 -11.2822 -0.312019 -3.72053 -48.435 -48.0839 -57.446 -10.7012
1.24316 1.26163 -10.8595 -57.7786 -55.7569 -49.3999 -10.1124 -8.03324 -2.00587 2.60207
-6.8448 -5.60382 -17.7451 -37.0491 -40.1038 -35.2544 -51.6494 -52.7061 -52.383 -4.69648
-17.2 -17.833 -5.14571 -55.8831 -51.281 -55.9802 -4.08335 -9.33614 -16.1601 -9.35556
67.5429 46.8629 -53.0356 -53.2971 -56.4327 -56.3037 -55.628 -52.4948 -56.9054 -52.5675
-55.4858 -58.9821 -59.2652 -59.2809 -30.4616 -75.0157 -93.7506 -98.3921 -99.5135 -99.0054
-45.7587 -50.5957 -54.7951 -48.3996 -50.8377 -99.3256 -100.531 -72.1429 -35.0627 -58.1252
-59.1775 -59.2184 -56.0087 -56.7969 -57.1567 -57.0806 -57.4538 7.36718 6.51613 9.22729
-55.2913 -55.3426 -55.4894 -54.7728 -54.885 -55.4392 -55.9008 -54.393 -54.3768 1.36089
0.977349 -0.18825 0.554899 3.11271 3.45476 0.342799 -55.4593 -56.0806 -56.6605 5.65464
6.48085 2.59703 0.710788 3.00801 -29.0493 -35.1315 -34.3965 -28.6069 -53.8312 -54.6743
-58.4094 -57.7988 -54.2235 -55.3832 -36.6296 -40.9505 -40.946 -34.9276 -46.5505 -50.722
-52.4568 -52.4956 -51.8092 123.935 131.838 147.098 147.182 -57.5848 -56.9055 -57.008
-57.3768 -57.5816 5.48848 3.57916 4.42771 5.76074 -9.39258 -4.08789 -6.02655 -8.6225
-11.2503 -36.6941 -34.8618 -24.051 -25.6096 -30.1664 -36.703 -21.9844 -22.0441 31.4046
41.6504 52.4235 38.0381 23.148 20.6657 35.072 26.8559 0.728336 0.88694 2.02499
33.8658 24.6977 16.7304 21.7763 2.06627 3.24246 3.67803 3.66732 2.97999 5.78727
5.73723 3.60175 -8.98234 -7.74486 -1.25488 -9.9866 14.7064 9.14978 10.82 -55.5505
-58.2257 -58.3713 -55.7662 -81.0773 -79.8153 -82.9912 -47.6309 -11.8555 -17.8568 -26.1931
-56.2189 -52.9386 -55.787 -56.8695 -74.7379 -74.3594 -59.2569 -60.4273 -47.5771 -47.1001
-49.9352 -49.6319 2.77911 2.85909 -1.51188 5.64377 5.2136 4.07389 4.75772 5.59357
5.82418 -55.1373 -54.4569 -67.5085 -66.6836 78.8748 93.9539 85.5387 111.998 106.298
88.727 90.0468 161.811 164.139 153.297 121.537 98.3152 104.27 97.201 117.537
-11.8259 -25.5558 -29.3486 -4.85136 -24.9351 -52.1912 -40.8537 -5.41673 94.069 101.527
87.0136 78.4901 96.8357 88.5686 107.866 148.697 158.369 167.536 165.248 106.696
103.002 159.826 -32.4489 -7.55343 -37.7879 -28.6551 -48.2309 140.205 140.065 115.576
110.564 110.194 115.466 139.574 138.952 108.069 167.209 170.811 171.999 172.289
173.725 186.677 186.865 174.829 173.282 -29.8485 -37.3838 -29.824 -55.512 -48.8713
-40.0516 -39.3499 -37.9545 -22.7169 3.77006 -0.964485 1.00016 173.404 175.354 187.224
172.391 186.544 187.187 175.25 172.277 179.709 181.866 170.209 168.979 179.994
167.954 171.183 182.517 -52.0078 -36.7108 -35.5418 -55.319 -55.4835 -55.5534 -35.0443
-44.8701 -34.8313 -34.9251 -44.2792 -44.2727 -3.78556 -9.16963 -24.1277 -23.9606 -29.8126
-40.6921 -29.8373 -29.6151 -40.3368 -18.3228 -16.2865 -17.9161 115.413 140.145 138.163
139.061 114.692 109.328 170.131 170 170.567 167.816 136.462 108.44 113.611
137.199 -57.0787 -53.2414 -51.7357 -51.6165 -55.224 -44.3377 89.9546 93.2016 78.4226
-13.3073 -4.6603 -4.18706 -17.978 55.5773 57.5734 71.1001 74.3603 -56.7101 -56.09
-56.3229 -56.7107 -57.6136 -57.8628 -58.0021 -58.0878 -55.9291 -55.8994 -55.3194 -55.5371
-129.013 -104.454 -73.5284 -93.3333 -95.5714 -97.1929 -97.1812 -81.6644 -79.7147 -93.3427
-71.6077 -86.3381 -134.432 -138.228 -130.027 -97.1565 -97.8507 -54.8886 -54.2498 -54.7291
-55.9796 -56.1532 -54.0099 -53.8014 7.44636 8.04154 13.7493 16.5399 13.7886 -49.4302
-48.6714 -43.5746 -43.834 -45.6908 -45.5264 -45.5112 -45.3843 11.8179 11.4471 15.6719
6.97881 6.74696 8.29098 8.8246 8.92501 7.70001 6.48827 7.09817 11.3829 14.6617
12.818 0.111775 -1.53632 -3.5688 6.21132 5.35323 4.1675 5.56625 6.32739 -51.4491
-52.1588 -55.5423 -55.0413 -47.2714 -48.169 13.6529 15.7908 17.2326 -46.2236 -48.5326
-48.7298 -45.9619 -45.3739 10.4448 10.2028 10.2412 8.61953 5.86853 -7.68558 -6.53746
4.25957 5.4232 5.40667 -47.1366 -47.3554 146.391 148.417 140.814 136.859 113.167
118.156 125.583 121.024 184.607 185.884 182.175 178.413 -56.0856 -56.0585 -53.6734
-53.5779 169.69 183.423 185.116 173.045 174.491 186.619 171.091 182.22 169.698
179.375 -16.0246 -18.1468 -22.3836 -26.4705 -25.1384 -21.7921 -6.42225 -1.46279 -1.94474
-6.79218 -11.5388 -11.1194 -1.14937 -9.08845 -9.95178 -15.1677 -18.144 -8.53928 -9.21585
-24.9939 -20.4176 -9.54506 -0.708377 -3.00419 6.36475 -2.45615 6.35 7.08623 2.45453
3.08006 3.79377 3.55021 7.77045 6.17177 3.80804 5.64238 -18.7386 -15.7295 -26.1049
-21.1159 -57.1259 -58.5675 -59.1142 -59.0049 2.96447 3.03529 5.08975 5.49354 4.35831
4.97351 -15.0067 -40.8634 -57.8066 -66.0832 -53.9343 -32.5175 -59.2677 10.6065 10.0569
10.0818 -3.42926 -0.519461 10.9997 16.3001 8.75501 23.6834 20.4055 10.2236 1.05987
6.03786 7.5012 12.2701 10.7125 5.9371 -52.8337 -44.217 -49.618 -12.222 -42.9603
-23.7334 -59.413 -81.972 108.525 92.5795 106.03 108.2 112.58 111.718 172.889
172.012 173.266 172.587 171.272 185.979 185.98 185.206 -57.9119 -58.1636 174.576
-56.9055 -56.9097 -57.8346 -57.9385 -57.7453 -55.2736 -151.14 -138.078 -137.944 -134.413
-158.765 -137.833 -134.128 -134.462 -120.787 -116.415 -81.558 -73.9318 -74.1936 -71.6652
-120.723 -122.551 -57.5313 -56.7466 -55.6589 -57.8466 10.061 7.63401 10.8119 8.29875
11.1597 12.1849 12.5864 13.4948 14.3126 -54.3648 -53.5252 -55.9716 -54.4013 -52.0002
-51.7814 -51.8353 -54.1699 -6.6327 -1.27042 -1.98244 -5.30989 8.46956 8.56707 6.06464
5.38442 6.94194 8.83057 8.19599 6.14803 0.43982 7.02164 5.8934 5.86853 8.67559
10.5054 9.2688 12.132 11.419 -53.9303 -54.5013 -54.7558 -54.8509 -55.0168 -54.9644
-54.6022 -51.1272 -52.7061 -52.7182 -52.8821 -50.4148 -51.3777 -72.343 -71.8938 -56.5585
-58.4794 -76.2231 -67.2913 -73.2976 -118.659 -122.68 -130.293 -78.0536 -95.7536 -104.313
-78.9799 -96.9302 128.634 113.445 148.429 151.66 -54.8217 -54.0131 -55.1358 -55.2793
-53.5966 143.945 167.94 146.192 -46.9114 -45.9582 -46.3689 -47.2749 -46.9948 -47.0301
-46.9356 -45.5029 -8.3704 -9.76109 -11.6335 -10.7432 -14.1768 -16.241 -18.2474 -16.1738
-17.0252 75.0656 85.9005 -56.5149 52.0449 76.9355 65.2573 75.3391 60.7896 13.3727
10.5369 45.2692 36.2306 7.00665 7.82356 2.70395 4.30656 4.16389 6.51831 5.63398
5.9658 6.27571 6.92301 -51.549 -50.992 -51.0873 -51.9034 -2.03053 -1.55897 -2.07701
1.16328 4.94732 4.34233 6.52979 5.8266 -50.1094 -50.1329 -49.7577 138.098 136.172
171.181 184.778 189.089 189.378 186.871 185.344 -56.2649 -55.9186 -56.1938 -56.048
-53.8183 -45.1779 -45.8382 -45.9435 -45.2243 -45.3124 -46.5345 -56.8446 -56.8731 -57.3834
-57.2254 -56.9289 -56.916 -57.0757 -56.6447 -54.8377 -112.103 -108.351 -136.28 -112.427
-135.78 -123.718 -125.042 -135.174 -56.9616 -57.382 -55.6675 -54.3012 14.0226 12.6115
11.7384 12.9088 12.8433 13.4806 -33.8859 -33.4529 -28.56 -27.931 -39.2245 -39.7849
-44.361 -43.9603 -49.6914 -49.7431 -43.3218 -51.0232 -50.6541 -6.86057 -1.78571 -11.8605
0.25441 1.65033 7.46467 7.04606 7.36773 3.84338 9.88002 6.82926 8.14158 9.00339
9.72384 9.70868 9.78547 11.6544 11.3119 1.87728 11.3601 13.6751 14.7535 2.81657
2.26357 1.96153 2.72906 -57.9876 -57.1569 -51.6858 -56.1376 -42.1564 -41.655 -37.7067
-42.012 -43.4696 -48.2484 -49.8855 -48.0083 -48 -47.9825 -45.041 -50.8804 -46.4229
3.22502 -46.1579 -47.2845 140.89 131.675 129.287 129.302 129.683 114.154 106.733
188.667 188.144 187.135 -51.5589 -51.7729 0.428373 0.939262 1.85015 -26.7341 -27.5531
186.145 186.964 180.453 183.424 181.994 181.618 -31.2715 -27.3036 -1.20484 -5.52356
-3.82325 -1.26036 -21.9352 -11.1036 -7.97597 -10.839 -17.1924 -4.60311 80.7453 56.4158
60.9083 21.0046 21.4139 67.9554 110.668 10.0123 6.93957 -2.52034 -2.84084 6.82391
7.6227 7.85054 6.1414 6.56141 24.8236 16.7665 0.465766 20.3407 -2.73417 2.50585
7.80579 7.65583 68.0126 110.209 -54.0237 -55.8784 18.6535 91.4464 108.848 101.101
93.476 108.895 109.825 127.057 134.864 143.648 -56.1905 81.4837 73.4681 50.1842
14.546 20.4317 18.5724 -71.3169 -57.6025 -57.5974 -57.6001 -55.9855 -55.902 -60.7032
-56.1865 -60.6164 -61.2667 23.3668 -6.86314 5.49035 10.1587 10.4945 -2.29589 -2.37435
-3.50753 -55.0623 -52.7162 -1.59405 2.14537 2.37493 -57.1907 -56.6316 -55.7471 7.84674
7.53143 3.71022 -56.2906 42.4402 49.4452 -67.2228 -59.608 17.2487 14.7634 7.88295
5.97159 4.07165 7.32701 5.89222 -53.5998 -53.7078 -52.1057 -51.7784 -56.7456 -51.7383
-50.9951 -55.4042 -55.596 -55.5273 -55.1758 -56.2109 -55.8828 -55.6077 -55.4558 3.53197
-50.9924 -56.5527 -55.5829 100.391 129.034 144.624 155.102 168.05 162.871 160.676
148.66 188.255 -53.1526 -53.9797 -51.1001 -5.43243 -8.26254 -1.39209 -47.6428 -47.7296
-47.6543 -47.8211 -52.0085 -46.3039 -46.794 -45.4164 -45.542 -46.2273 29.342 20.9203
-107.733 -115.063 -114.804 -115.359 -115.668 -74.5006 -97.3134 -74.5032 13.5078 17.2537
-11.4556 11.0909 10.4245 -6.24832 -8.01201 3.24764 1.51888 0.112543 -0.533033 -1.96386
-3.40085 -2.02269 3.1612 3.52003 -0.903645 1.72299 3.50281 1.26773 0.070501 13.4146
17.9153 -49.0103 4.50797 11.834 7.9229 15.3057 7.58409 10.2337 13.1412 14.7785
3.82923 4.01464 6.18705 5.55518 -2.90906 -4.95078 -7.35507 -7.24378 4.50266 1.19904
3.93402 9.05291 14.728 15.8487 7.66935 5.3155 2.54199 2.15921 6.67468 9.91114
10.4592 11.1111 10.3637 5.3532 -4.32765 5.22558 -3.53354 2.64302 -4.33251 1.92356
10.5656 7.91839 11.9581 6.76188 9.10555 11.0486 10.4913 10.1916 7.83903 8.16781
8.71203 8.99211 7.84745 7.18201 7.23522 5.94572 -6.21779 -9.92819 -8.06732 6.31374
5.71883 7.91794 6.05045 -10.1365 -12.1188 0.647664 6.84786 5.64764 -2.36361 5.32665
-138.389 -139.445 -139.778 10.559 -55.2724 -53.7055 -53.7491 4.56895 8.86199 4.9129
7.76342 11.1376 -55.4516 -55.3118 -54.4661 -53.9143 -59.828 -59.134 -59.4755 -67.7736
-112.291 -114.907 -110.103 -115.582 -46.7404 -47.3781 -45.6703 -45.3622 -45.3984 -45.41
-13.9915 -14.0124 -16.2616 -51.2582 -51.0516 -50.8389 4.26477 0.447609 4.28591 4.15499
-50.6622 -51.0774 -51.1528 141.64 151.02 -55.7178 -51.5517 13.4703 14.2651 10.4199
6.70562 10.3714 17.4185 4.24496 3.34337 4.55999 3.72306 -52.7442 -57.7398 -57.4902
-56.1155 7.31636 14.5444 10.4012 3.58789 3.82235 9.58004 8.28655 8.90115 8.0654
9.77327 11.8556 9.59072 5.05659 8.43834 7.9485 -53.0912 -48.1781 -46.7737 92.1134
81.4728 85.1273 68.2124 74.0563 -5.0432 -3.12456 0.0668841 -1.84255 7.47152 8.0408
7.54523 8.05797 7.89799 7.35473 6.81848 117.363 107.184 95.1614 -74.4294 -58.203
-56.9889 -55.604 -55.6305 -55.1336 -55.2517 163.5 139.782 161.918 162.039 8.38459
5.69041 11.2661 11.9561 7.09039 8.56006 7.30819 6.82234 6.00278 2.56961 -2.64131
4.81601 5.48013 6.054 3.98505 6.3466 14.0744 8.72445 -14.2078 14.7478 13.4891
6.85964 10.0609 15.6473 8.81451 -13.8533 -14.8242 -12.7355 -3.70642 -5.8084 -14.5658
6.57285 4.80301 -15.8893 -17.7284 6.27261 3.9606 -2.02158 -4.7018 -54.2079 -45.1658
13.5271 1.58978 -0.0499224 -0.39782 5.94938 5.511 6.49406 6.03092 5.98226 5.53414
-0.18966 5.79273 6.32165 -1.04921 5.23911 4.10806 6.95836 6.4658 5.79337 107.158
87.8851 122.699 124.555 4.74537 4.44482 2.84692 -54.3449 4.66339 5.72827 5.46983
-9.96472 -12.8666 -0.629369 5.87241 6.36665 5.0315 8.02476 4.76762 6.70147 3.29619
36.9379 -52.341 -56.1515 -55.6544 -55.6338 -55.7137 -3.72306 -5.2057 -14.0945 -13.9653
-13.9892 -4.21332 8.46987 2.42706 5.19691 6.26628 1.68707 1.54872 -0.859244 -1.76954
-11.8066 -5.9379 -4.77412 -12.1643 -4.91868 -13.2369 5.31512 -12.82 -13.9214 -3.46379
0.892335 6.37426 6.39609 5.80566 8.31428 -0.241996 6.4664 -3.31768 -1.32324 4.05126
-1.54547 6.84209 4.31406 -10.1956 8.57573 -0.851392 6.14375 1.02057 1.35063 4.85391
5.19431 4.2755 5.06327 2.32119 7.35367 8.43369 4.98272 5.63373 0.58272 2.85118
10.617 5.18334 0.0236828 -0.68667 3.00169 173.121 176.955 176.252 181.146 169.26
168.259 172.842 179.933 180.929 69.4644 73.6623 54.7765 -56.9972 -38.9155 -35.7724
-33.9667 -27.9625 -41.3685 -50.2279 -49.6246 -54.5902 -44.8105 100.598 154.807 162.369
155.499 147.448 -57.0816 -56.7383 -57.0475 -56.8459 -56.49 -56.811 -55.8911 -56.1386
-56.0218 5.27528 1.36438 171.284 -15.7574 186.038 190.289 189.439 -49.6518 -45.1594
182.845 185.985 186.15 -15.8073 -48.9901 85.7548 -56.0044 -56.1073 -56.3188 -56.2833
-47.9043 189.401 -0.510177 189.571 185.576 189.153 7.57192 -63.4413 110.459 109.766
-56.867 3.62154 -52.2623 -53.4749 -52.3359 -139.855 139.312 -55.8741 159.139 -52.415
-115.739 -115.667 73.6871 6.76647 1.94949 168.288 164.897 -15.0524 139.829 191.149
190.043 185.517 189.47 190.845 189.832 172.822 191.208 186.818 189.996 191.242
0.608429 0.603993 0.629095 0.697512 0.908835 1.60187 2.17093 -4.00099 1.29044 0.0310758
-4.07351 -5.83446 0.409606 0.0914533 0.00186393 0.00961252 0.0143932 0.00951496 0.00421909 0.00155207
0.000938607 0.00103277 0.00178649 0.000811224 -52.7043 -50.5038 -128.127 -128.659 -45.7459 -46.1671
-46.8916 -45.5622 -46.0246 -46.7714 -47.4031 -45.1389 -95.8312 -75.2685 -46.5635 -45.3262
-74.7189 -46.4594 -49.0199 -49.6016 -48.3642 -97.6846 -108.2 -123.953 -114.905 -114.761

U 3 2021 float
20.0088 -0.0445581 -0.214361 20.0461 -0.0297348 -0.0731793 19.9312 -0.0059129 -0.0961822 19.9394 -0.0541952
-0.605502 20.0171 -0.0543539 0.0399584 20.0174 -0.0542595 0.0399898 20.1673 -0.0730936 0.0574933
20.2319 -0.0812025 0.065525 20.277 -0.0857036 0.149874 20.2846 -0.10635 0.261039 20.2056
-0.107457 0.20723 19.9568 -0.0428475 0.0197828 19.9967 -0.0494083 0.0180988 20.0042 -0.0476324
0.0068295 19.8612 -0.0223844 0.0179587 19.8604 -0.0193047 0.0143763 20.0066 -0.0473638 0.00181244
19.8629 -0.0179488 0.00989175 20.0051 -0.0466878 0.000477117 19.8621 -0.0165544 0.00893834 20.0035
-0.0459637 -1.79091e-05 19.8609 -0.0151984 0.00855771 20.0021 -0.0452383 -0.000257849 19.8598 -0.0139784
0.00825536 20.0007 -0.0445728 -0.000384457 19.8588 -0.0129003 0.00800508 19.9992 -0.0439392 -0.000452194
19.8577 -0.0119208 0.00781593 19.9977 -0.0433209 -0.00049806 19.8566 -0.0110376 0.00764069 19.9962
-0.042722 -0.000498457 19.8556 -0.0102297 0.00757775 19.9944 -0.0420937 -0.000564032 19.8546 -0.00939954
0.00734323 19.8541 -0.00898154 0.00707605 19.9941 -0.0418558 -0.000597246 19.9996 -0.000334566 3.08553e-05
20 0 0 20 0 0 19.9996 -0.000333724 7.71687e-05 19.9983
-0.000776859 9.25338e-05 19.9984 -0.000783793 0.000274087 19.9942 -0.00152028 0.000363462 19.9942 -0.00148274
0.000987013 19.9789 -0.00273619 0.000326265 19.9796 -0.0030503 0.00352491 19.9474 -0.00537032 -0.00912084
19.937 -0.00615188 -0.00829213 19.9398 0.00233476 -0.0144811 19.9297 -0.00504252 -0.0295648 19.9081
0.00556444 -0.0610436 20.2336 -0.0693681 0.00240208 20.0507 -0.0279204 -0.0558875 20.2358 -0.0684305
0.00594698 19.9328 -0.0812647 0.030934 20.0249 -0.108301 0.0837149 20.2316 -0.0811739 0.0650024
19.8626 -0.0273663 0.0237541 19.3179 0.114048 0.0135351 19.3496 0.111345 0.014298 19.3776
0.10577 0.0140713 19.3983 0.101466 0.0145202 19.4162 0.0976505 0.0148194 19.4328 0.0940702
0.0148147 19.4483 0.0907145 0.0146736 19.4628 0.0875771 0.0144858 19.4766 0.0846008 0.0142515
19.4891 0.0818048 0.0140544 19.5033 0.0790705 0.0137004 19.5117 0.0776541 0.0134086 20
0 0 19.9996 -0.000333477 0.000134852 19.9985 -0.000779246 0.0004826 19.9946 -0.00148377
0.00169707 19.9801 -0.00315734 0.00594275 19.92 -0.00857705 0.0101515 19.92 -0.00784575 0.000406523
19.8518 -0.0159046 -0.0961837 19.7949 -0.019674 -0.0692353 19.9605 -0.0487444 -1.02223 20.4423
-0.0632833 -0.923904 20.2202 -0.0506167 -0.499529 19.9343 -0.0541284 -0.635039 20.2986 -0.149929
0.444932 20.2988 -0.150738 0.448292 20.0924 -0.228696 0.576657 19.9876 -0.216398 0.304083