# vtk DataFile Version 2.0
sampleSurface
ASCII
DATASET POLYDATA
POINTS 2021 float
-0.500032 0 0.11501 -0.499951 3.38813e-21 0.0392727 -0.789037 8.47033e-21 0.120673 -0.500013 -1.35525e-20
0.193965 1.00003 0 0.0485099 1.00003 0 0.0478584 0.475202 0 0.0353615
0.250044 1.41878e-20 0.0305359 0.2506 -5.42101e-20 0.117067 0.251301 0 0.203885 0.364989
0 0.203772 1.75002 0 0.113255 1.75002 0 0.0564279 2.50001 6.89146e-18
0.059229 2.21354 0 0.250758 2.50001 0 0.252875 3.25001 -3.47927e-17 0.0598775
3.25001 -1.69407e-21 0.253888 4.00001 5.60566e-18 0.0599857 4 0 0.253986 4.75
-1.79088e-17 0.0599988 4.75 8.47033e-22 0.253998 5.5 -2.79246e-17 0.0599999 5.5 -4.23516e-22
0.253999 6.25 1.01187e-17 0.06 6.25 0 0.254 7 2.93732e-17 0.06
7 0 0.254 7.75 -2.65294e-17 0.06 7.75 0 0.254 8.5
1.8923e-17 0.06 8.5 0 0.254 9.25 -2.88552e-17 0.06 9.25 -5.29396e-23
0.254 10 -2.64698e-23 0.254 10 0 0.06 -4.24997 0 0.0599042
-5 0 0.0599861 -5 0 0.253986 -4.24997 0 0.253912 -3.49995
0 0.0593815 -3.49994 0 0.253441 -2.74993 0 0.0570188 -2.74991 0
0.251316 -1.99991 0 0.0492276 -1.99987 0 0.242776 -1.24992 -1.69407e-21 0.03
-1.24985 1.23328e-17 0.222327 -1.24989 3.38813e-21 0.125756 -0.874924 2.08116e-17 0.03 -0.874929
0 0.122356 -0.124951 -8.47033e-22 0.03 -0.499941 0 0.03 -0.124922 -8.47033e-22
0.0385291 1.00021 0 0.231242 0.625368 0 0.203537 0.25004 -2.11758e-22 0.03
1.75003 0 0.247334 1.92873 1.69407e-21 0.441438 2.50001 0 0.447397 3.25
-1.69407e-21 0.447898 4 0 0.447986 4.75 0 0.447997 5.5 -4.23516e-22
0.447999 6.25 4.23516e-22 0.447999 7 0 0.448 7.75 -1.05879e-22 0.448
8.5 0 0.448 9.25 0 0.448 10 -2.64698e-23 0.448 -5
-8.47033e-22 0.447985 -4.24997 0 0.447919 -3.49993 0 0.4475 -2.74988 0
0.445609 -1.9998 6.77626e-21 0.437758 -1.24969 1.61411e-17 0.417681 -1.24976 -6.77626e-21 0.31973
-0.875161 7.70461e-18 0.216228 -0.875403 0 0.312476 -0.499924 -8.74138e-19 0.250039 -0.312433
0 0.250037 -0.312436 0 0.200025 -0.499924 0 0.200026 0.250062 3.38813e-21
0.24921 0.250039 -1.69407e-21 0.250046 0.250032 0 0.300069 0.437526 3.05948e-18 0.300066
0.625026 0 0.30005 1.00072 -8.23994e-18 0.326497 1.00196 0 0.423 1.75013
0 0.439575 1.75013 1.77877e-20 0.448245 1.00135 0 0.537141 1.00002 0
0.61834 1.74999 2.71051e-20 0.633055 2.49999 -3.38813e-21 0.641448 3.25 0 0.641907
4 -1.69407e-21 0.641985 4.75 -8.47033e-22 0.641996 5.5 -4.23516e-22 0.641998 6.25
0 0.641999 7 0 0.641999 7.75 0 0.642 8.5 5.29396e-23
0.642 9.25 -5.29396e-23 0.642 10 0 0.642 -5 0 0.641985
-4.24997 -1.69407e-21 0.641926 -3.49993 0 0.641557 -2.74988 0 0.639897 -1.99989
6.77626e-21 0.63382 -1.25099 2.55465e-18 0.614606 -1.25 -2.71051e-20 0.515981 -0.878244 0
0.50789 -0.875961 2.71051e-20 0.459694 -0.875609 0 0.410432 -0.498432 0 0.400603
-0.498071 -1.70762e-18 0.413126 -0.450805 0 0.413349 -0.45095 0 0.400955 0.250009
1.89735e-19 0.412703 0.25 2.71051e-20 0.425212 0.296872 1.00289e-18 0.425187 0.343754 -2.71051e-20
0.425153 0.343763 0 0.400146 0.250006 0 0.400175 1.00162 1.41488e-17 0.520353
-2 4.23516e-22 0.820145 -2.09502 -2.11758e-22 0.830091 -2 0 0.829497 -1.25123
0 0.813251 -1.25126 0 0.713737 -1.25101 6.77626e-21 0.62198 1.00059 0
0.714169 1.00094 0 0.809205 1.75018 0 0.82775 2.5 0 0.835521
3.25 0 0.835917 4 -1.69407e-21 0.835986 4.75 -8.47033e-22 0.835996 5.5
0 0.835998 6.25 0 0.835999 7 0 0.835999 7.75 0
0.836 8.5 0 0.836 9.25 0 0.836 10 0 0.836
-5 -8.47033e-22 0.835986 -4.24997 0 0.835935 -3.49995 0 0.835616 -2.74991
0 0.83419 -0.970118 0 0.703382 -0.87455 0 0.699864 -0.874264 -2.71051e-20
0.649852 -0.874033 -2.71051e-20 0.599873 -0.49698 0 0.599585 -0.497345 -9.21572e-19 0.612046
-0.450014 0 0.611892 -0.44938 2.71051e-20 0.599454 -2.00002 0 0.84097 -1.84639
-3.38813e-21 1.02215 -1.25185 0 1.01276 -0.896512 -3.38813e-21 0.900668 -0.908183 6.77626e-21
0.801076 -0.904022 -1.86347e-20 1.00093 0.624925 0 0.799916 0.249931 0 0.799891
0.249978 0 0.899916 0.249997 0 0.999939 0.999987 0 0.999957 1.75061
-2.1684e-19 1.02409 2.50003 0 1.0296 3.25 -1.69407e-21 1.02993 4 0
1.02999 4.75 0 1.03 5.5 0 1.03 6.25 2.11758e-22 1.03
7 0 1.03 7.75 0 1.03 8.5 5.29396e-23 1.03 9.25
0 1.03 10 0 1.03 -5 0 1.02999 -4.24998 0
1.02994 -3.49996 -8.47033e-22 1.02968 -2.74996 0 1.02849 -2.00026 0 1.02458
-0.87482 0 0.799893 -0.87491 0 0.899919 -0.49993 0 0.799862 -0.499958
7.6233e-19 0.849889 -0.312476 0 0.849885 -0.312472 0 0.799853 -1.25001 8.04681e-21
1.19601 -0.499979 5.29396e-23 1.10737 -0.731886 2.11758e-22 1.19997 -0.499981 0 1.19997
-0.124987 0 0.999933 -0.477759 -5.29396e-23 0.999933 -0.487556 -1.45584e-22 1.09995 0.250008
0 1.19997 1 0 1.19997 1.7507 0 1.22203 2.50003 -1.35525e-20
1.22368 3.25 0 1.22394 4 0 1.22399 4.75 4.23516e-22 1.224
5.5 0 1.224 6.25 2.11758e-22 1.224 7 0 1.224 7.75
1.05879e-22 1.224 8.5 0 1.224 9.25 0 1.224 10 2.64698e-23
1.224 -5 4.23516e-22 1.22399 -4.24999 -4.23516e-22 1.22395 -3.49998 0 1.22374
-2.75001 0 1.22279 -2.00077 0 1.21965 -1.24997 4.23516e-22 1.19997 -0.499969
-5.29396e-23 0.999933 -0.874942 0 0.999936 -0.499979 -1.32349e-23 1.09995 -2.75001 0
1.36967 -3.18711 4.23516e-22 1.41751 -2.75001 4.23516e-22 1.4171 -2.00072 3.38813e-21 1.29692
-2.00065 0 1.41474 -1.25823 6.35275e-21 1.40014 -0.980416 0 1.39998 -0.499986
0 1.39998 0.250009 0 1.39998 1 0 1.39998 1.75054 0
1.41682 2.50002 -1.35525e-20 1.41776 3.25 0 1.41796 4 4.23516e-22 1.41799
4.75 0 1.418 5.5 0 1.418 6.25 0 1.418 7
0 1.418 7.75 0 1.418 8.5 0 1.418 9.25 0
1.418 10 0 1.418 -5 0 1.41799 -4.24999 0 1.41797
-3.49999 -4.23516e-22 1.41781 -1.24998 0 1.39998 -2.80392 1.32349e-23 1.61143 -2.75
-1.32349e-23 1.6114 -2.0003 0 1.60983 -1.25396 2.64698e-23 1.60004 -1.12789 2.64698e-23
1.59999 -0.49999 1.05879e-22 1.59999 0.250008 0 1.59999 1.00001 4.23516e-22 1.59999
1.75038 0 1.61122 2.50002 0 1.61184 3.25 -4.23516e-22 1.61197 4
-4.23516e-22 1.61199 4.75 0 1.612 5.5 0 1.612 6.25 0
1.612 7 0 1.612 7.75 5.29396e-23 1.612 8.5 2.64698e-23 1.612
9.25 -1.32349e-23 1.612 10 -1.32349e-23 1.612 -5 0 1.61199 -4.24999
0 1.61198 -3.49999 0 1.61187 -1.24999 0 1.59999 -2.75 -1.32349e-23
1.63714 -2.64195 -2.11758e-22 1.80559 -2.00012 -8.47033e-22 1.80492 -1.25741 0 1.80004
-1.19082 -7.94093e-23 1.8 -0.499992 1.05879e-22 1.79999 0.250006 2.11758e-22 1.79999 1
0 1.8 1.75023 0 1.80561 2.50001 3.38813e-21 1.80592 3.25 0
1.80599 4 0 1.806 4.75 2.11758e-22 1.806 5.5 0 1.806
6.25 0 1.806 7 0 1.806 7.75 0 1.806 8.5
2.64698e-23 1.806 9.25 0 1.806 10 0 1.806 -5 0
1.806 -4.25 -2.11758e-22 1.80599 -3.49999 0 1.80594 -2.75 -1.05879e-22 1.8057
-1.24999 0 1.8 -2 -4.76456e-22 1.98532 -1.20969 -1.65436e-23 2 -0.499993
0 2 0.250006 0 2 1 0 2 1.75 0
2 2.5 0 2 3.25 0 2 4 0 2
4.75 -1.05879e-22 2 5.5 0 2 6.25 0 2 7
5.29396e-23 2 7.75 0 2 8.5 0 2 9.25 0
2 10 -1.32349e-23 2 -5 2.21817e-18 2 -4.25 1.05879e-22 2
-3.49999 0 2 -2.74999 0 2 -1.99999 -5.29396e-23 2 -1.24999
3.30872e-24 2 0.0956945 -5.42101e-20 0.203879 0.0632748 0 0.203876 0.0625511 0
0.250042 -0.403589 6.77626e-21 0.40138 -0.405779 7.7927e-19 0.38799 -0.406379 -6.77626e-21 0.375196
-0.499567 -1.35525e-20 0.375265 0.250006 -6.50521e-19 0.375144 0.156247 0 0.375155 0.156237
9.41901e-19 0.400212 0.203129 0 0.400201 0.249796 0 0.59991 0.249852 -1.0842e-19
0.587433 0.202953 0 0.587417 0.202888 6.50521e-19 0.599901 0.625121 -6.77626e-21 0.499953
0.717439 6.77626e-21 0.504955 0.625095 6.77626e-21 0.475379 0.343596 1.0842e-19 0.599918 0.343639
0 0.574939 0.296781 0 0.574964 0.249926 0 0.574977 0.62499 -4.2826e-18
0.549927 0.624917 4.55365e-18 0.599925 0.203133 0 0.412725 -0.449046 0 0.587135
-0.496581 5.42101e-20 0.587161 0.625036 -9.32414e-18 0.40006 0.625067 1.13164e-18 0.450032 0.249704
0 0.624881 0.155871 0 0.599866 0.155839 1.95156e-18 0.624853 0.249886 1.35525e-20
0.749873 0.062411 0 0.749846 0.0624478 -4.26227e-18 0.799869 -0.312472 0 0.749804
-0.499901 -3.38813e-21 0.749824 -0.691227 0 0.30453 -0.499912 3.02221e-18 0.300065 -0.875784
-3.11708e-18 0.361353 -0.592465 -2.71051e-20 0.40036 -0.499854 0 0.350135 -0.687111 1.35525e-20
0.350117 -0.68656 -2.71051e-20 0.40021 0.437526 -1.35525e-20 0.400108 0.437522 6.77626e-21 0.350086
0.250015 -2.51399e-18 0.35011 0.625027 3.38813e-21 0.350064 -0.592287 0 0.425286 -0.498048
0 0.425444 -0.873902 5.42101e-18 0.54992 -0.496663 0 0.574746 -0.591532 0
0.574798 -0.591729 0 0.599734 -0.149108 0 0.406489 -0.149477 -5.29396e-23 0.403592
-0.149678 0 0.406489 -0.451876 -2.1684e-18 0.499977 -0.451579 0 0.487563 -0.498366
0 0.487552 -0.498515 -1.0842e-19 0.499993 0.437553 0 0.450075 0.437532 -6.07153e-18
0.425113 0.254621 -1.25361e-19 0.496697 0.26485 -5.42101e-20 0.498023 0.264831 0 0.496529
0.254636 -2.30393e-19 0.49668 0.570241 0 0.499932 0.437665 -2.71051e-20 0.474991 0.437859
-2.71051e-20 0.49988 0.437372 -1.0842e-19 0.599915 0.249722 3.25261e-19 0.649874 0.43732 -5.42101e-20
0.649899 0.624872 0 0.649914 0.624883 -3.95734e-18 0.699913 0.43734 6.83047e-18 0.699894
0.249817 0 0.699869 -0.592227 0 0.624743 -0.498071 -2.71051e-20 0.624658 -0.499769
6.77626e-21 0.69979 -0.687025 0 0.699824 -0.150854 -1.03677e-18 0.599678 -0.151059 -6.77626e-21
0.605522 -0.127339 6.77626e-21 0.605681 -0.127867 0 0.599582 -0.406139 -4.40457e-20 0.699754
-0.406113 0 0.674749 -0.499634 0 0.674774 -0.18433 -4.23516e-22 0.674527 -0.163626
-4.23516e-22 0.678958 -0.165125 0 0.674537 -0.171868 4.23516e-22 0.674524 -0.14924 3.34737e-19
0.400169 -0.125737 0 0.400165 -0.12551 0 0.393854 -0.149076 -2.11758e-22 0.393877
-0.499925 -2.61564e-18 0.325088 -0.406241 0 0.325087 -0.4062 0 0.300069 -0.124901
0 0.300062 -0.218633 -3.27294e-18 0.299673 -0.218596 1.35525e-20 0.324664 -0.124851 0
0.325085 -0.126061 7.86047e-19 0.406473 -0.0785222 1.30782e-18 0.400166 -0.126118 3.38813e-21 0.41275
-0.0785648 0 0.412729 0.240678 1.0842e-18 0.500153 0.252614 -2.1684e-19 0.498317 0.252386
1.0842e-19 0.496231 0.241035 0 0.496114 0.228892 -1.35525e-20 0.496204 0.228835 6.77626e-21
0.498715 0.229819 2.71051e-20 0.500074 0.25248 0 0.499935 0.240657 -1.6263e-19 0.500957
0.264863 0 0.500154 0.264689 0 0.500951 0.437443 0 0.549896 0.437406
[...]
POINT_DATA 2021
FIELD attributes 2
p 1 2021 float
1.97941 1.41363 2.35916 4.3204 0.0580515 0.0559571 -4.19951 -6.03539 -7.68037 -6.12881 -4.2949
0.490042 0.458337 0.108835 0.322028 0.171961 0.000938293 0.0254277 0.00229495 0.0124581 0.00650177
0.014075 0.00264816 0.00940209 -0.00119012 0.00461697 -0.00238101 0.00248336 -0.00201552 0.00199628 -0.00155169
0.00151609 -0.000309514 0.00269256 0 0 0.617734 0.613293 0.613139 0.617446 0.638556
0.637656 0.708384 0.705263 0.929549 0.926378 1.63918 1.76174 1.77641 2.23062 2.47183
-4.07046 1.34429 -4.12369 0.64452 -0.108251 -6.02519 0.56482 0.430813 0.183518 0.0252667
0.00411691 0.00760856 0.0052689 0.00156217 -2.04786e-05 -0.00012146 -0.00106869 0.00179586 0 0.612702
0.616671 0.635235 0.69624 0.905552 1.95674 2.02867 3.11965 3.86347 7.25897 -3.42149
-1.11279 4.5391 -5.65654 -5.64801 -2.19271 0.333995 0.813177 1.01239 0.896843 0.508116
0.503988 0.778352 0.814669 0.415851 0.161715 0.0191104 -0.00100724 0.00444225 0.00366947 0.000545818
-0.000735113 -0.000551408 -0.00110141 0.00193331 0 0.612006 0.615474 0.631596 0.683573 0.865393
1.85201 2.13671 5.13114 5.58266 4.81946 32.5041 36.3942 51.9274 45.8765 4.86572
4.97049 3.37522 3.44447 2.69401 4.18289 0.770873 0.811537 0.791079 0.808833 1.39952
1.78786 1.84726 0.959584 0.470499 0.344483 0.126051 0.0123429 -0.000961786 0.00581268 0.00559447
0.0024099 0.000996103 0.00108655 0.00136142 0.00287038 0 0.611124 0.613987 0.627164 0.668715
3.25456 3.75314 4.68257 4.75985 34.3398 32.6737 44.5903 50.7317 0.805009 0.784881
0.943512 1.71056 2.63326 1.14806 0.0697832 -4.86894 -5.29967 -2.74417 -0.234283 0.186581
0.0721535 -0.0065488 -0.0124987 -0.00269453 -0.000595522 -0.00231644 -0.00267751 -0.00173287 -0.000577992 0.000570956
0 0.610149 0.612359 0.622339 0.652748 0.743804 2.75316 1.7406 5.20294 3.30839
0.582601 -0.653001 0.702374 0.321615 0.318839 0.149495 -1.69759 0.685533 0.292484 -0.97118
-0.398625 0.0939394 0.0638671 -0.00382613 -0.0124406 -0.00277893 -1.99601e-05 -0.00142058 -0.00162487 -0.000581617
0.000595236 0.00123832 0 0.609179 0.610743 0.617491 0.636638 0.680398 0.697155 0.835577
1.16516 0.335411 0.625419 0.616708 0.621796 0.660146 0.629258 0.570993 0.388667 0.0648714
-0.562696 -0.381306 0.0431884 0.0586073 -0.00519886 -0.0165671 -0.00596752 -0.00209395 -0.00299717 -0.00292311
-0.00171003 -0.000444018 0.000218244 0 0.608311 0.609283 0.613067 0.570346 0.610023 0.610062
0.594157 0.499607 0.43116 0.0817647 -0.434151 -0.351613 -0.00307759 0.0475026 -0.0087344 -0.0201075
-0.00790377 -0.00296002 -0.00349483 -0.00325162 -0.00196072 -0.000659959 4.99001e-05 0 0.607628 0.608106
0.60952 0.499104 0.609082 0.59851 0.573815 0.461774 0.431463 0.0906545 -0.363919 -0.335003
-0.0291801 0.042379 -0.00915362 -0.0211558 -0.00859332 -0.00332783 -0.00378766 -0.003497 -0.00217793 -0.000865089
-0.000109498 0 0.607186 0.607321 0.607175 0.602667 0.460654 0.567536 0.429254 0.0936152
-0.341487 -0.329609 -0.0374305 0.0407941 -0.00926588 -0.0215664 -0.00893534 -0.0035429 -0.00393725 -0.00359147
-0.00223798 -0.000908734 -0.000128292 9.3733e-06 0.60703 0.607038 0.60633 0.600145 0.567025 0.448314
-10.2525 -11.111 -11.7309 70.2855 59.8044 43.6212 29.576 3.01737 1.85275 4.59394
5.21566 3.96245 4.30344 5.88738 5.22219 1.98562 1.68761 2.10948 2.74123 3.37596
2.94446 3.59271 2.19027 1.84254 6.21595 56.2206 39.4229 1.91205 2.23686 3.66782
4.54446 2.20212 -4.4851 -11.1781 -9.83267 -3.19124 8.47514 6.98211 11.8407 4.74036
17.4318 20.7327 9.11448 10.4966 2.58313 1.48698 1.05963 1.63657 19.7006 36.8602
5.61021 39.6254 20.326 18.8208 -59.2594 -59.0066 -59.257 68.4195 68.3266 47.5226
44.7635 3.43658 3.13545 -6.10947 -0.347259 -0.476864 -6.16363 2.56391 4.01356 3.95473
2.73822 1.88134 1.69661 1.57582 0.918758 0.734749 -1.30574 17.0112 28.0908 13.2948
7.28455 -56.5759 -56.2065 -58.632 -58.9028 13.8747 19.0953 18.4724 -46.2131 -42.6641
-44.3442 -45.0734 -58.7109 -57.9623 -57.7613 -58.029 16.5309 15.7004 11.8657 -29.2722
-28.0923 -45.4602 -36.8791 -59.3574 -46.6051 -59.3743 -49.132 11.4439 4.07506 10.9008
12.4031 9.49513 9.77221 10.0669 4.26336 11.5686 0.218406 0.000704329 3.60772 3.31791
4.06015 4.27679 47.7229 68.3065 -59.1006 -56.7006 6.38716 11.5586 -52.7596 -54.4034
-59.0375 4.14695 6.13224 6.31447 6.37412 -31.3861 -40.0083 -49.363 -29.7751 64.3386
60.7148 41.6021 41.3582 -44.2152 -56.174 -11.4066 -8.39007 -0.298991 -24.3279 -42.214
42.9617 44.287 64.2783 66.4485 -52.3311 -50.722 -51.7829 0.441993 -9.61138 -12.6187
-11.6295 -21.6709 -24.8556 -57.6389 44.0004 21.8315 22.1298 11.6857 11.9979 12.1816
13.1284 22.0113 44.4788 10.7966 12.457 11.8952 13.2316 -60.0623 -60.0501 -59.4853
-59.4719 -58.8464 -58.4771 -58.2555 45.7726 66.7689 -59.7692 -59.9586 -60.3159 -59.6902
-30.0943 -35.7489 -33.4002 -13.4678 -1.15896 -4.69139 -51.8301 -51.6483 -59.3665 -12.6153
0.804879 0.643487 -12.9833 -59.5524 -57.9896 -52.387 -11.9161 -9.57003 -2.977 2.2782
-7.59837 -5.97969 -19.1441 -39.6375 -43.1352 -37.6096 -53.1757 -54.2493 -54.2339 -4.20924
-17.6489 -18.7278 -5.06922 -57.1198 -52.7603 -57.0892 -3.44389 -9.19152 -16.4634 -11.0162
67.4992 46.8427 -55.6445 -55.703 -57.9736 -57.9018 -57.4778 -55.2139 -58.2089 -54.5001
-57.2397 -59.8345 -59.8814 -59.9551 -32.3485 -77.2276 -96.2898 -101.368 -104.336 -103.953
-49.46 -49.8879 -54.0033 -47.9608 -51.0505 -99.4578 -100.236 -71.7383 -35.0377 -59.4879
-60.0084 -59.6628 -57.6021 -58.2796 -58.6296 -58.5866 -58.8991 7.72791 6.76485 9.62058
-57.25 -57.1735 -57.2536 -56.9064 -56.9144 -57.27 -57.7994 -56.6388 -56.6183 1.62703
1.32597 0.138014 0.745259 4.14503 4.56693 1.41891 -57.2492 -57.6014 -58.423 5.79413
6.64723 2.666 0.620354 3.01745 -32.4206 -38.688 -38.4024 -32.504 -55.4472 -55.7503
-58.5915 -58.5364 -56.4247 -57.2058 -39.8676 -44.4925 -43.8991 -37.4545 -45.9314 -49.7958
-53.4922 -53.7027 -52.2744 123.549 131.414 146.757 146.845 -59.4722 -57.0513 -57.6138
-58.9979 -59.0844 4.94927 2.68958 3.33012 4.88037 -9.76223 -3.86962 -6.12328 -9.14977
-12.1359 -40.2972 -37.3831 -25.6736 -27.8894 -32.8475 -40.3567 -25.4904 -25.0036 31.0453
41.1966 52.0436 37.8967 23.0629 18.843 34.0224 26.0134 0.685997 0.844375 2.00026
33.8074 24.6887 16.6773 21.6532 2.45466 3.50269 4.13062 4.21356 3.47333 6.31426
6.45147 4.47314 -9.3885 -8.26113 -1.35617 -10.2317 14.6964 9.15125 10.824 -54.311
-56.4771 -56.6032 -54.5138 -82.5272 -81.2696 -84.459 -47.8931 -12.7177 -18.3341 -27.7156
-55.9857 -52.7069 -55.2641 -56.5141 -74.0086 -73.628 -58.611 -59.698 -50.8479 -49.6466
-51.5488 -51.9766 3.24831 3.31767 -1.2894 6.01105 5.60275 4.43659 5.18779 5.81957
6.18131 -53.8036 -53.2822 -68.8313 -68.0818 78.8236 93.861 85.4371 111.95 106.237
88.6965 90.0288 161.778 164.092 153.239 121.506 98.3018 104.259 97.191 117.507
-12.704 -26.7716 -31.2785 -5.65532 -25.9447 -51.9254 -41.6137 -6.13722 93.6557 101.165
86.749 78.2117 96.663 88.3521 107.558 148.433 158.193 167.391 165.123 106.591
102.867 159.609 -33.0208 -8.04931 -39.2967 -28.5308 -48.0491 140.167 140.031 115.549
110.534 110.18 115.446 139.545 138.923 108.06 167.183 170.784 171.969 172.257
173.687 186.632 186.817 174.79 173.244 -33.5369 -40.8171 -33.3612 -57.541 -51.8935
-43.4105 -42.852 -41.4763 -25.6027 3.45093 -1.92394 -0.185356 173.365 175.309 187.169
172.34 186.492 187.13 175.199 172.154 179.589 181.749 170.089 168.857 179.898
167.857 171.073 182.407 -53.9433 -38.7215 -37.0213 -56.9358 -56.8084 -57.1606 -36.5085
-46.7367 -36.6484 -37.4357 -46.4489 -46.3791 -3.26583 -9.17722 -25.0144 -25.093 -33.2722
-44.2601 -32.936 -32.591 -43.6319 -20.7563 -18.8582 -20.2529 115.375 140.101 138.088
138.998 114.637 109.266 170.013 169.885 170.454 167.72 136.358 108.358 113.534
137.111 -58.1025 -55.2793 -54.3956 -54.2689 -57.0033 -47.0956 89.7959 93.001 78.202
-16.2739 -7.44096 -6.99636 -21.1917 54.3611 56.3034 70.0499 73.6206 -56.1972 -55.3556
-55.686 -56.1807 -57.6232 -57.9098 -58.2263 -58.3048 -57.7662 -57.9855 -57.8132 -57.9303
-136.804 -110.205 -78.9345 -95.8426 -98.2314 -99.0185 -99.0119 -83.1069 -79.0265 -92.7896
-72.8507 -88.2346 -136.72 -140.031 -131.333 -96.6128 -97.3399 -56.4906 -55.947 -56.6747
-57.5964 -57.9235 -55.6545 -55.5324 7.26959 7.54397 14.0985 16.8606 14.1306 -52.3865
-52.0279 -47.5254 -47.3232 -48.7076 -48.5901 -48.5676 -48.2902 13.6575 13.2588 17.9467
8.07345 7.86926 9.45016 9.97596 10.0345 8.4907 7.23718 8.01802 12.6303 16.2562
14.1084 0.80384 -1.07563 -3.29517 6.87673 5.98094 4.854 6.39099 7.01097 -53.689
-54.9226 -57.8148 -56.863 -49.7884 -51.1418 14.0051 16.1645 17.5343 -49.0936 -51.433
-51.5675 -48.9327 -48.2667 11.7064 11.4145 11.4616 9.80468 6.79662 -8.28538 -6.92457
5.24092 5.96374 6.03168 -49.6626 -50.37 146.269 148.286 140.666 136.755 112.95
118.036 125.473 120.832 184.581 185.857 182.15 178.388 -57.5673 -57.6112 -54.2801
-54.1248 169.62 183.357 185.049 172.975 174.43 186.557 171.012 182.143 169.606
179.283 -16.9431 -19.6723 -24.3801 -29.3199 -27.7291 -24.0745 -8.73087 -3.28201 -3.42668
-8.70927 -13.847 -13.8716 -1.09686 -9.0954 -9.96583 -15.1209 -18.1671 -8.50027 -9.19233
-24.9432 -20.3528 -9.64373 -0.757711 -3.04122 6.4993 -3.27095 6.48299 7.36289 2.90564
3.46862 4.25779 3.87343 8.05486 6.29923 3.88167 5.79863 -18.8988 -15.9886 -26.2963
-21.4627 -56.8654 -58.5914 -59.2718 -59.2581 2.83097 2.92862 5.13499 5.62712 4.32903
4.96721 -14.9525 -40.6847 -57.2845 -65.3112 -53.65 -32.4437 -59.5315 11.2625 10.6688
10.6938 -3.86854 -0.821206 12.5251 18.4167 9.57699 25.4427 22.0814 10.9613 0.833841
6.72576 8.39404 13.7286 11.9445 6.49968 -55.1157 -44.0534 -49.9181 -13.1149 -43.9014
-25.0457 -60.583 -83.7304 108.291 92.2701 105.867 107.98 112.434 111.499 172.856
171.979 173.231 172.55 171.245 185.941 185.942 185.178 -59.4323 -59.6645 174.465
-57.0513 -57.0495 -57.9992 -58.1244 -57.8941 -57.9192 -153.716 -140.301 -140.191 -136.988
-161.548 -140.1 -135.429 -135.765 -121.33 -117.005 -82.2596 -73.0437 -73.4412 -70.8059
-120.862 -122.91 -57.62 -56.5916 -55.3815 -58.0133 10.1178 7.84286 11.2085 8.67723
11.6241 12.6009 13.0419 13.7749 14.6255 -56.61 -55.8148 -57.8811 -56.6482 -54.7306
-54.4556 -54.6374 -56.5203 -7.03228 -1.02287 -1.99494 -5.50278 9.12169 9.43982 6.58387
5.61255 7.37617 9.47657 8.62976 6.43222 1.38396 8.04874 6.99812 6.86642 9.06122
10.8338 9.59603 12.4524 11.7462 -56.6876 -56.9003 -55.6731 -55.8107 -55.9378 -55.7327
-55.1826 -53.9204 -55.1645 -55.1719 -55.1315 -51.525 -52.998 -73.9169 -72.9597 -57.8632
-60.3828 -77.5621 -68.5367 -78.7012 -125.75 -130.57 -138.19 -79.5824 -97.4317 -107.952
-80.3821 -98.8687 128.534 113.336 148.298 151.538 -56.1664 -55.6112 -56.5709 -56.6429
-54.3789 143.858 167.859 146.119 -50.9546 -50.2173 -50.5517 -51.2366 -50.9242 -50.9413
-50.8793 -49.7862 -8.59803 -10.0149 -12.5757 -11.5703 -15.3344 -17.8334 -20.1605 -17.7505
-18.8065 74.7361 85.4372 -60.419 50.9237 76.4417 64.9261 75.1143 60.5972 12.9252
9.89467 45.0723 36.057 8.15087 8.98804 3.20525 5.00169 4.81986 7.54336 6.40898
6.84155 7.18982 7.98487 -53.4591 -52.9066 -52.564 -53.1308 -1.92013 -1.55654 -2.17773
1.62984 5.4782 4.83008 7.08355 6.40562 -51.5078 -52.0269 -51.828 138.011 136.076
171.152 184.751 189.056 189.344 186.84 185.311 -57.6961 -57.4758 -57.7111 -57.6273
-54.5161 -48.0622 -48.7437 -49.3002 -48.6212 -48.9238 -50.0326 -56.4746 -56.5061 -57.2152
-58.75 -58.487 -58.4792 -58.5836 -58.2974 -56.8741 -116.698 -112.006 -138.651 -114.858
-137.091 -124.282 -125.746 -136.493 -56.6039 -58.8714 -57.3126 -56.4117 14.1746 12.9023
11.9725 13.0062 13.169 13.7058 -38.5325 -38.331 -33.5172 -32.5339 -43.8204 -44.8113
-49.2779 -48.6278 -53.5734 -53.6475 -48.5015 -53.7895 -53.4473 -7.29565 -1.56916 -12.9774
-0.693964 0.894469 7.8295 7.37081 7.753 3.5487 10.685 7.14629 8.65078 10.1136
10.8318 10.8094 10.912 12.861 12.4771 1.1584 12.6241 15.1467 16.4364 3.24404
2.66289 2.39824 3.19041 -61.2168 -60.1152 -55.7482 -58.4115 -46.692 -45.8904 -41.5656
-46.2341 -47.9801 -52.331 -54.0253 -51.7355 -52.1809 -51.7144 -50.2317 -55.1065 -49.295
3.48049 -50.1653 -51.7814 140.738 131.508 129.181 129.078 129.46 113.887 106.441
188.635 188.117 187.111 -51.1001 -51.478 -1.52396 -0.99007 0.104391 -31.498 -32.1313
186.067 186.898 180.375 183.344 181.895 181.517 -34.1333 -29.9723 -3.343 -8.43592
-6.42549 -3.50623 -26.1463 -14.6019 -11.088 -14.1078 -20.8217 -4.60059 80.7105 56.426
60.8174 21.0416 21.4261 67.9564 110.647 10.6188 7.39986 -2.98142 -3.2571 6.98077
7.81381 8.11052 6.23619 6.69442 24.5008 16.2794 -0.472747 19.7093 -2.9395 2.99406
8.30173 8.19186 67.9817 110.166 -55.3937 -56.3262 18.0818 90.9397 108.6 100.362
92.471 108.061 109.138 126.553 134.301 143.171 -57.7539 80.858 72.7467 49.3862
12.2989 18.1767 16.3492 -76.5981 -57.7014 -57.6952 -57.6987 -55.3226 -55.2835 -59.938
-55.4164 -59.7003 -60.4281 25.0944 -7.40848 6.01152 10.997 11.3424 -2.47525 -2.59603
-3.85301 -56.1164 -55.1724 -1.59472 2.15824 2.49025 -59.1214 -58.5853 -57.6502 8.11211
7.84471 3.66575 -58.2462 41.2958 48.6448 -69.0505 -61.4561 16.1273 13.8376 8.80064
6.64755 4.71679 8.29147 6.6709 -54.6181 -54.521 -53.5383 -53.5949 -55.5509 -52.5067
-52.1469 -54.5763 -54.9095 -54.9108 -54.3384 -55.5659 -55.1284 -54.9091 -54.6301 4.02935
-52.135 -58.2076 -57.1655 100.315 128.935 144.547 154.989 167.982 162.767 160.58
148.589 188.221 -54.0252 -55.5033 -52.7814 -6.78741 -9.86484 -2.82105 -51.5148 -51.5875
-51.3504 -51.5508 -54.7358 -49.4301 -50.7644 -49.7043 -49.3284 -49.9354 27.1475 18.5591
-113.632 -121.29 -121.202 -121.879 -122.241 -73.6979 -96.7622 -73.6992 13.7518 17.5444
-12.5876 12.481 11.8208 -6.09681 -7.86881 4.0839 2.21719 0.74163 0.0888216 -1.36964
-2.91824 -1.50734 3.91851 4.01997 -0.310302 2.32654 4.03055 1.96909 0.746404 13.5505
18.1825 -51.7377 5.32481 12.9187 8.38339 17.0012 7.81797 11.0383 14.3846 16.2917
4.34408 4.39301 6.53524 5.86363 -3.23868 -5.40162 -7.94355 -7.83353 4.60801 0.527115
3.69123 9.60931 16.2467 17.6132 8.28367 5.29772 2.18836 1.80161 6.97156 10.9423
11.6698 12.4178 11.4843 5.34286 -5.0813 5.20139 -4.17105 2.17615 -5.0939 1.52664
11.5618 8.63103 13.0627 7.13003 9.94192 12.0242 11.3375 11.0105 8.30315 9.03522
9.59048 9.85639 8.18916 7.61416 7.7124 6.09189 -6.97598 -10.926 -8.86611 6.51399
5.93633 8.40213 6.22471 -11.1046 -13.0919 0.393502 7.11453 5.6415 -2.82091 5.31026
-140.471 -141.06 -141.34 10.9562 -57.1418 -56.5982 -56.7454 5.06261 10.0319 5.01958
8.26108 11.4403 -57.3649 -57.1655 -57.1314 -57.1511 -61.2802 -60.8987 -61.412 -69.1515
-116.933 -121.349 -114.484 -122.089 -50.8062 -51.2633 -49.6506 -49.3951 -49.6013 -49.3773
-15.4281 -15.4239 -17.9565 -53.1341 -52.9473 -52.7349 4.73274 0.677548 4.65007 4.53225
-52.5372 -52.8905 -53.0168 141.449 150.86 -57.35 -51.0875 13.6313 14.3222 11.8783
6.98194 11.4813 19.4829 4.18833 3.28022 4.67393 3.68922 -53.7323 -57.5725 -57.2676
-55.5533 7.71865 15.9613 11.52 3.96376 4.13864 10.5511 9.24642 9.92739 9.01915
10.8175 12.9868 10.6752 5.62334 8.7961 8.40035 -55.3402 -51.8367 -50.5656 91.2267
80.326 84.2246 66.8569 72.8094 -5.4176 -3.35375 0.0820597 -1.7974 7.66357 8.19641
7.78303 8.30574 8.05391 7.52463 7.01235 116.8 106.75 94.6974 -73.6253 -57.3795
-56.2787 -55.0827 -55.0122 -54.5017 -54.5409 163.457 139.73 161.867 161.978 7.74294
4.59181 11.1291 11.7484 7.38558 8.95551 7.54481 7.1153 6.23219 2.51145 -3.1164
4.76074 5.48323 6.10942 4.27999 6.81476 15.3316 9.46614 -15.3016 16.5703 14.7628
7.4587 10.88 17.0083 9.51919 -15.1205 -16.1186 -14.0012 -4.08514 -6.38378 -15.6801
7.18494 4.79605 -17.3042 -19.092 6.44088 4.29777 -2.3059 -5.54537 -55.7351 -48.3098
13.5565 1.57738 -0.280234 -0.699914 6.01807 5.56349 6.56222 6.06106 6.00719 5.55247
-0.581632 6.05388 6.80859 -1.40256 5.55956 4.4216 7.2492 6.67202 6.05594 106.241
86.765 122.012 123.814 5.04333 4.7184 2.96106 -55.9892 4.96034 6.1685 5.89719
-10.6067 -13.784 -0.493421 6.10872 6.64885 5.24294 8.25535 4.96621 6.90152 3.45895
35.8813 -53.8171 -55.3482 -54.8792 -54.8355 -54.9715 -3.38669 -4.91015 -15.0927 -14.9514
-14.9766 -4.95084 9.02032 2.19325 5.43312 6.81805 1.74931 1.52293 -1.03264 -2.12355
-13.0635 -6.6686 -5.42968 -13.4076 -5.50907 -14.4189 5.44993 -13.7114 -14.9054 -3.82748
0.760732 6.35773 6.2909 5.76383 9.26505 -0.639573 6.66055 -3.78999 -1.6956 4.31614
-1.77462 7.38812 4.79269 -10.961 9.27915 -1.22205 6.18336 0.658553 1.09513 4.79973
5.17493 4.18547 4.95102 2.16391 7.79245 9.06235 5.25185 5.97831 0.474838 3.22582
11.638 5.32874 0.0585857 -1.08941 3.14216 173.07 176.917 176.107 181.024 169.115
168.081 172.664 179.904 180.901 68.6447 72.9024 53.8498 -57.0124 -42.857 -39.7666
-38.5092 -32.5337 -45.3186 -53.0316 -52.8402 -56.8578 -48.1098 100.467 154.445 162.088
155.226 146.963 -58.2761 -57.9513 -58.0461 -57.9986 -56.9584 -57.988 -55.7127 -56.0372
-55.8718 4.17281 -0.130885 171.224 -18.7867 186.002 190.246 189.399 -52.4382 -48.191
182.739 185.873 186.046 -16.2865 -52.5166 85.2077 -55.3154 -55.4514 -55.6858 -55.6841
-51.5174 189.367 -2.23128 189.503 185.518 189.095 7.88754 -64.1826 110.187 109.505
-56.7312 4.63846 -52.3892 -54.2797 -52.5751 -141.648 138.719 -55.1655 159.002 -52.7758
-122.325 -122.239 72.3973 7.00628 2.09323 168.065 164.677 -15.4288 139.798 191.093
189.992 185.4 189.435 190.782 189.778 172.778 191.146 186.769 189.944 191.181
0.61775 0.613299 0.638546 0.707509 0.920533 1.61991 2.2018 -3.99894 1.33171 0.0228729
-4.09502 -5.86168 0.402987 0.0870412 -0.00443213 0.00179256 0.00700975 0.00339437 -0.000346749 -0.0014774
-0.00109297 -0.000632548 0.000530977 0.000515119 -55.1638 -53.5772 -135.972 -136.551 -50.0566 -50.4098
-50.8634 -49.9175 -50.3095 -50.8197 -51.3124 -49.5223 -95.2515 -74.4453 -50.7051 -49.4156
-73.8957 -50.6457 -52.5579 -52.7611 -52.1667 -99.4738 -111.794 -131.334 -121.347 -121.142

U 3 2021 float
20.0067 -0.0466077 -0.214527 20.0441 -0.0314382 -0.0732939 19.9297 -0.00698211 -0.0960713 19.9372 -0.0572546
-0.604398 20.0185 -0.0603268 0.0403562 20.0188 -0.0602166 0.0403877 20.1682 -0.0803231 0.0574601
20.2325 -0.0889832 0.0652952 20.2777 -0.094334 0.147744 20.2901 -0.12075 0.262553 20.2099
-0.121438 0.207848 19.9562 -0.0483008 0.020494 19.9976 -0.0554678 0.0187977 20.0045 -0.0536365
0.00739203 19.8565 -0.0258126 0.0188906 19.8551 -0.022365 0.0154265 20.0066 -0.0532974 0.00223599
19.8575 -0.0207871 0.0110689 20.0051 -0.0524893 0.000799556 19.8566 -0.0190418 0.0102678 20.0034
-0.0516638 0.000206829 19.8552 -0.0174006 0.00998578 20.0019 -0.0509143 -0.000136996 19.854 -0.0159936
0.00970713 20.0004 -0.0502661 -0.000370868 19.8529 -0.0147818 0.00941531 19.9988 -0.0496558 -0.000533062
19.8517 -0.0136831 0.00914536 19.9971 -0.0490513 -0.00064648 19.8506 -0.0126776 0.00887477 19.9955
-0.0484594 -0.000677536 19.8495 -0.0117542 0.00874326 19.9936 -0.0478284 -0.000750559 19.8485 -0.0107536
0.00844445 19.848 -0.0102174 0.00813438 19.9932 -0.0476095 -0.000775521 19.9996 -0.000348862 3.13962e-05
20 0 0 20 0 0 19.9996 -0.00034941 7.91932e-05 19.9983
-0.000801172 9.40523e-05 19.9984 -0.000812454 0.000279333 19.9943 -0.00158208 0.000366137 19.9942 -0.00154963
0.000997259 19.9789 -0.00286879 0.000331224 19.9797 -0.00319748 0.00356026 19.9469 -0.00569648 -0.00904928
19.9367 -0.00638988 -0.00802399 19.9393 0.00196386 -0.0143254 19.9284 -0.00580945 -0.029437 19.9068
0.00478657 -0.0608506 20.2327 -0.0747592 0.00207799 20.0487 -0.0295814 -0.0559959 20.2349 -0.0739269
0.00541043 19.931 -0.0916562 0.0313158 20.0265 -0.121206 0.0823041 20.2322 -0.0889493 0.0647843
19.8587 -0.0313893 0.0244943 19.3036 0.124363 0.0114546 19.3358 0.121848 0.0125821 19.364
0.116077 0.0127473 19.3856 0.111776 0.0135305 19.4044 0.107931 0.0140945 19.422 0.104285
0.0142903 19.4385 0.100814 0.0142892 19.454 0.0975378 0.0141971 19.4687 0.0944204 0.0140314
19.4821 0.0914884 0.013899 19.4974 0.0885208 0.0136091 19.5065 0.0869388 0.0133473 20
0 0 19.9996 -0.00035046 0.000138014 19.9985 -0.000813028 0.000490628 19.9946 -0.00155888
0.00171494 19.9802 -0.00333487 0.00600254 19.9201 -0.0089694 0.0106664 19.9199 -0.0080821 0.000911993
19.8508 -0.0170959 -0.095521 19.7943 -0.0210601 -0.0681678 19.9586 -0.0527269 -1.021 20.4376
-0.0710863 -0.925358 20.2173 -0.0561953 -0.504333 19.9322 -0.0573178 -0.63375 20.308 -0.171129
0.452351 20.3083 -0.172063 0.455818 20.1022 -0.259382 0.579528 19.9933 -0.244231 0.29926