# vtk DataFile Version 2.0
sampleSurface
ASCII
DATASET POLYDATA
POINTS 2021 float
-0.500032 0 0.11501 -0.499951 3.38813e-21 0.0392727 -0.789037 8.47033e-21 0.120673 -0.500013 -1.35525e-20
0.193965 1.00003 0 0.0485099 1.00003 0 0.0478584 0.475202 0 0.0353615
0.250044 1.41878e-20 0.0305359 0.2506 -5.42101e-20 0.117067 0.251301 0 0.203885 0.364989
0 0.203772 1.75002 0 0.113255 1.75002 0 0.0564279 2.50001 6.89146e-18
0.059229 2.21354 0 0.250758 2.50001 0 0.252875 3.25001 -3.47927e-17 0.0598775
3.25001 -1.69407e-21 0.253888 4.00001 5.60566e-18 0.0599857 4 0 0.253986 4.75
-1.79088e-17 0.0599988 4.75 8.47033e-22 0.253998 5.5 -2.79246e-17 0.0599999 5.5 -4.23516e-22
0.253999 6.25 1.01187e-17 0.06 6.25 0 0.254 7 2.93732e-17 0.06
7 0 0.254 7.75 -2.65294e-17 0.06 7.75 0 0.254 8.5
1.8923e-17 0.06 8.5 0 0.254 9.25 -2.88552e-17 0.06 9.25 -5.29396e-23
0.254 10 -2.64698e-23 0.254 10 0 0.06 -4.24997 0 0.0599042
-5 0 0.0599861 -5 0 0.253986 -4.24997 0 0.253912 -3.49995
0 0.0593815 -3.49994 0 0.253441 -2.74993 0 0.0570188 -2.74991 0
0.251316 -1.99991 0 0.0492276 -1.99987 0 0.242776 -1.24992 -1.69407e-21 0.03
-1.24985 1.23328e-17 0.222327 -1.24989 3.38813e-21 0.125756 -0.874924 2.08116e-17 0.03 -0.874929
0 0.122356 -0.124951 -8.47033e-22 0.03 -0.499941 0 0.03 -0.124922 -8.47033e-22
0.0385291 1.00021 0 0.231242 0.625368 0 0.203537 0.25004 -2.11758e-22 0.03
1.75003 0 0.247334 1.92873 1.69407e-21 0.441438 2.50001 0 0.447397 3.25
-1.69407e-21 0.447898 4 0 0.447986 4.75 0 0.447997 5.5 -4.23516e-22
0.447999 6.25 4.23516e-22 0.447999 7 0 0.448 7.75 -1.05879e-22 0.448
8.5 0 0.448 9.25 0 0.448 10 -2.64698e-23 0.448 -5
-8.47033e-22 0.447985 -4.24997 0 0.447919 -3.49993 0 0.4475 -2.74988 0
0.445609 -1.9998 6.77626e-21 0.437758 -1.24969 1.61411e-17 0.417681 -1.24976 -6.77626e-21 0.31973
-0.875161 7.70461e-18 0.216228 -0.875403 0 0.312476 -0.499924 -8.74138e-19 0.250039 -0.312433
0 0.250037 -0.312436 0 0.200025 -0.499924 0 0.200026 0.250062 3.38813e-21
0.24921 0.250039 -1.69407e-21 0.250046 0.250032 0 0.300069 0.437526 3.05948e-18 0.300066
0.625026 0 0.30005 1.00072 -8.23994e-18 0.326497 1.00196 0 0.423 1.75013
0 0.439575 1.75013 1.77877e-20 0.448245 1.00135 0 0.537141 1.00002 0
0.61834 1.74999 2.71051e-20 0.633055 2.49999 -3.38813e-21 0.641448 3.25 0 0.641907
4 -1.69407e-21 0.641985 4.75 -8.47033e-22 0.641996 5.5 -4.23516e-22 0.641998 6.25
0 0.641999 7 0 0.641999 7.75 0 0.642 8.5 5.29396e-23
0.642 9.25 -5.29396e-23 0.642 10 0 0.642 -5 0 0.641985
-4.24997 -1.69407e-21 0.641926 -3.49993 0 0.641557 -2.74988 0 0.639897 -1.99989
6.77626e-21 0.63382 -1.25099 2.55465e-18 0.614606 -1.25 -2.71051e-20 0.515981 -0.878244 0
0.50789 -0.875961 2.71051e-20 0.459694 -0.875609 0 0.410432 -0.498432 0 0.400603
-0.498071 -1.70762e-18 0.413126 -0.450805 0 0.413349 -0.45095 0 0.400955 0.250009
1.89735e-19 0.412703 0.25 2.71051e-20 0.425212 0.296872 1.00289e-18 0.425187 0.343754 -2.71051e-20
0.425153 0.343763 0 0.400146 0.250006 0 0.400175 1.00162 1.41488e-17 0.520353
-2 4.23516e-22 0.820145 -2.09502 -2.11758e-22 0.830091 -2 0 0.829497 -1.25123
0 0.813251 -1.25126 0 0.713737 -1.25101 6.77626e-21 0.62198 1.00059 0
0.714169 1.00094 0 0.809205 1.75018 0 0.82775 2.5 0 0.835521
3.25 0 0.835917 4 -1.69407e-21 0.835986 4.75 -8.47033e-22 0.835996 5.5
0 0.835998 6.25 0 0.835999 7 0 0.835999 7.75 0
0.836 8.5 0 0.836 9.25 0 0.836 10 0 0.836
-5 -8.47033e-22 0.835986 -4.24997 0 0.835935 -3.49995 0 0.835616 -2.74991
0 0.83419 -0.970118 0 0.703382 -0.87455 0 0.699864 -0.874264 -2.71051e-20
0.649852 -0.874033 -2.71051e-20 0.599873 -0.49698 0 0.599585 -0.497345 -9.21572e-19 0.612046
-0.450014 0 0.611892 -0.44938 2.71051e-20 0.599454 -2.00002 0 0.84097 -1.84639
-3.38813e-21 1.02215 -1.25185 0 1.01276 -0.896512 -3.38813e-21 0.900668 -0.908183 6.77626e-21
0.801076 -0.904022 -1.86347e-20 1.00093 0.624925 0 0.799916 0.249931 0 0.799891
0.249978 0 0.899916 0.249997 0 0.999939 0.999987 0 0.999957 1.75061
-2.1684e-19 1.02409 2.50003 0 1.0296 3.25 -1.69407e-21 1.02993 4 0
1.02999 4.75 0 1.03 5.5 0 1.03 6.25 2.11758e-22 1.03
7 0 1.03 7.75 0 1.03 8.5 5.29396e-23 1.03 9.25
0 1.03 10 0 1.03 -5 0 1.02999 -4.24998 0
1.02994 -3.49996 -8.47033e-22 1.02968 -2.74996 0 1.02849 -2.00026 0 1.02458
-0.87482 0 0.799893 -0.87491 0 0.899919 -0.49993 0 0.799862 -0.499958
7.6233e-19 0.849889 -0.312476 0 0.849885 -0.312472 0 0.799853 -1.25001 8.04681e-21
1.19601 -0.499979 5.29396e-23 1.10737 -0.731886 2.11758e-22 1.19997 -0.499981 0 1.19997
-0.124987 0 0.999933 -0.477759 -5.29396e-23 0.999933 -0.487556 -1.45584e-22 1.09995 0.250008
0 1.19997 1 0 1.19997 1.7507 0 1.22203 2.50003 -1.35525e-20
1.22368 3.25 0 1.22394 4 0 1.22399 4.75 4.23516e-22 1.224
5.5 0 1.224 6.25 2.11758e-22 1.224 7 0 1.224 7.75
1.05879e-22 1.224 8.5 0 1.224 9.25 0 1.224 10 2.64698e-23
1.224 -5 4.23516e-22 1.22399 -4.24999 -4.23516e-22 1.22395 -3.49998 0 1.22374
-2.75001 0 1.22279 -2.00077 0 1.21965 -1.24997 4.23516e-22 1.19997 -0.499969
-5.29396e-23 0.999933 -0.874942 0 0.999936 -0.499979 -1.32349e-23 1.09995 -2.75001 0
1.36967 -3.18711 4.23516e-22 1.41751 -2.75001 4.23516e-22 1.4171 -2.00072 3.38813e-21 1.29692
-2.00065 0 1.41474 -1.25823 6.35275e-21 1.40014 -0.980416 0 1.39998 -0.499986
0 1.39998 0.250009 0 1.39998 1 0 1.39998 1.75054 0
1.41682 2.50002 -1.35525e-20 1.41776 3.25 0 1.41796 4 4.23516e-22 1.41799
4.75 0 1.418 5.5 0 1.418 6.25 0 1.418 7
0 1.418 7.75 0 1.418 8.5 0 1.418 9.25 0
1.418 10 0 1.418 -5 0 1.41799 -4.24999 0 1.41797
-3.49999 -4.23516e-22 1.41781 -1.24998 0 1.39998 -2.80392 1.32349e-23 1.61143 -2.75
-1.32349e-23 1.6114 -2.0003 0 1.60983 -1.25396 2.64698e-23 1.60004 -1.12789 2.64698e-23
1.59999 -0.49999 1.05879e-22 1.59999 0.250008 0 1.59999 1.00001 4.23516e-22 1.59999
1.75038 0 1.61122 2.50002 0 1.61184 3.25 -4.23516e-22 1.61197 4
-4.23516e-22 1.61199 4.75 0 1.612 5.5 0 1.612 6.25 0
1.612 7 0 1.612 7.75 5.29396e-23 1.612 8.5 2.64698e-23 1.612
9.25 -1.32349e-23 1.612 10 -1.32349e-23 1.612 -5 0 1.61199 -4.24999
0 1.61198 -3.49999 0 1.61187 -1.24999 0 1.59999 -2.75 -1.32349e-23
1.63714 -2.64195 -2.11758e-22 1.80559 -2.00012 -8.47033e-22 1.80492 -1.25741 0 1.80004
-1.19082 -7.94093e-23 1.8 -0.499992 1.05879e-22 1.79999 0.250006 2.11758e-22 1.79999 1
0 1.8 1.75023 0 1.80561 2.50001 3.38813e-21 1.80592 3.25 0
1.80599 4 0 1.806 4.75 2.11758e-22 1.806 5.5 0 1.806
6.25 0 1.806 7 0 1.806 7.75 0 1.806 8.5
2.64698e-23 1.806 9.25 0 1.806 10 0 1.806 -5 0
1.806 -4.25 -2.11758e-22 1.80599 -3.49999 0 1.80594 -2.75 -1.05879e-22 1.8057
-1.24999 0 1.8 -2 -4.76456e-22 1.98532 -1.20969 -1.65436e-23 2 -0.499993
0 2 0.250006 0 2 1 0 2 1.75 0
2 2.5 0 2 3.25 0 2 4 0 2
4.75 -1.05879e-22 2 5.5 0 2 6.25 0 2 7
5.29396e-23 2 7.75 0 2 8.5 0 2 9.25 0
2 10 -1.32349e-23 2 -5 2.21817e-18 2 -4.25 1.05879e-22 2
-3.49999 0 2 -2.74999 0 2 -1.99999 -5.29396e-23 2 -1.24999
3.30872e-24 2 0.0956945 -5.42101e-20 0.203879 0.0632748 0 0.203876 0.0625511 0
0.250042 -0.403589 6.77626e-21 0.40138 -0.405779 7.7927e-19 0.38799 -0.406379 -6.77626e-21 0.375196
-0.499567 -1.35525e-20 0.375265 0.250006 -6.50521e-19 0.375144 0.156247 0 0.375155 0.156237
9.41901e-19 0.400212 0.203129 0 0.400201 0.249796 0 0.59991 0.249852 -1.0842e-19
0.587433 0.202953 0 0.587417 0.202888 6.50521e-19 0.599901 0.625121 -6.77626e-21 0.499953
0.717439 6.77626e-21 0.504955 0.625095 6.77626e-21 0.475379 0.343596 1.0842e-19 0.599918 0.343639
0 0.574939 0.296781 0 0.574964 0.249926 0 0.574977 0.62499 -4.2826e-18
0.549927 0.624917 4.55365e-18 0.599925 0.203133 0 0.412725 -0.449046 0 0.587135
-0.496581 5.42101e-20 0.587161 0.625036 -9.32414e-18 0.40006 0.625067 1.13164e-18 0.450032 0.249704
0 0.624881 0.155871 0 0.599866 0.155839 1.95156e-18 0.624853 0.249886 1.35525e-20
0.749873 0.062411 0 0.749846 0.0624478 -4.26227e-18 0.799869 -0.312472 0 0.749804
-0.499901 -3.38813e-21 0.749824 -0.691227 0 0.30453 -0.499912 3.02221e-18 0.300065 -0.875784
-3.11708e-18 0.361353 -0.592465 -2.71051e-20 0.40036 -0.499854 0 0.350135 -0.687111 1.35525e-20
0.350117 -0.68656 -2.71051e-20 0.40021 0.437526 -1.35525e-20 0.400108 0.437522 6.77626e-21 0.350086
0.250015 -2.51399e-18 0.35011 0.625027 3.38813e-21 0.350064 -0.592287 0 0.425286 -0.498048
0 0.425444 -0.873902 5.42101e-18 0.54992 -0.496663 0 0.574746 -0.591532 0
0.574798 -0.591729 0 0.599734 -0.149108 0 0.406489 -0.149477 -5.29396e-23 0.403592
-0.149678 0 0.406489 -0.451876 -2.1684e-18 0.499977 -0.451579 0 0.487563 -0.498366
0 0.487552 -0.498515 -1.0842e-19 0.499993 0.437553 0 0.450075 0.437532 -6.07153e-18
0.425113 0.254621 -1.25361e-19 0.496697 0.26485 -5.42101e-20 0.498023 0.264831 0 0.496529
0.254636 -2.30393e-19 0.49668 0.570241 0 0.499932 0.437665 -2.71051e-20 0.474991 0.437859
-2.71051e-20 0.49988 0.437372 -1.0842e-19 0.599915 0.249722 3.25261e-19 0.649874 0.43732 -5.42101e-20
0.649899 0.624872 0 0.649914 0.624883 -3.95734e-18 0.699913 0.43734 6.83047e-18 0.699894
0.249817 0 0.699869 -0.592227 0 0.624743 -0.498071 -2.71051e-20 0.624658 -0.499769
6.77626e-21 0.69979 -0.687025 0 0.699824 -0.150854 -1.03677e-18 0.599678 -0.151059 -6.77626e-21
0.605522 -0.127339 6.77626e-21 0.605681 -0.127867 0 0.599582 -0.406139 -4.40457e-20 0.699754
-0.406113 0 0.674749 -0.499634 0 0.674774 -0.18433 -4.23516e-22 0.674527 -0.163626
-4.23516e-22 0.678958 -0.165125 0 0.674537 -0.171868 4.23516e-22 0.674524 -0.14924 3.34737e-19
0.400169 -0.125737 0 0.400165 -0.12551 0 0.393854 -0.149076 -2.11758e-22 0.393877
-0.499925 -2.61564e-18 0.325088 -0.406241 0 0.325087 -0.4062 0 0.300069 -0.124901
0 0.300062 -0.218633 -3.27294e-18 0.299673 -0.218596 1.35525e-20 0.324664 -0.124851 0
0.325085 -0.126061 7.86047e-19 0.406473 -0.0785222 1.30782e-18 0.400166 -0.126118 3.38813e-21 0.41275
-0.0785648 0 0.412729 0.240678 1.0842e-18 0.500153 0.252614 -2.1684e-19 0.498317 0.252386
1.0842e-19 0.496231 0.241035 0 0.496114 0.228892 -1.35525e-20 0.496204 0.228835 6.77626e-21
0.498715 0.229819 2.71051e-20 0.500074 0.25248 0 0.499935 0.240657 -1.6263e-19 0.500957
0.264863 0 0.500154 0.264689 0 0.500951 0.437443 0 0.549896 0.437406
[...]
POINT_DATA 2021
FIELD attributes 2
p 1 2021 float
2.01147 1.43977 2.37142 4.36475 0.0588765 0.0567628 -4.20478 -6.04328 -7.692 -6.16601 -4.32153
0.496154 0.464024 0.111556 0.326429 0.174682 0.00313069 0.0269337 0.00517159 0.0140905 0.00927319
0.0152544 0.00455658 0.00967654 8.66073e-06 0.00435699 -0.00147607 0.00223551 -0.00109411 0.00210061 -0.000468473
0.00213328 0.000559727 0.00333718 0 0 0.615018 0.610564 0.610412 0.614733 0.635897
0.635001 0.705854 0.702722 0.927906 0.924614 1.64213 1.76367 1.77906 2.23751 2.47821
-4.05585 1.36971 -4.10865 0.650816 -0.110869 -6.03306 0.571939 0.441919 0.189348 0.0288597
0.00690191 0.0090679 0.00530386 0.000854142 -0.000709183 -0.000314038 -0.000418014 0.00265276 0 0.60998
0.613963 0.632586 0.693685 0.903495 1.95754 2.03032 3.1297 3.87404 7.32569 -3.29775
-1.04947 4.58475 -5.73032 -5.72245 -2.26375 0.337777 0.8261 1.03027 0.925443 0.520871
0.51667 0.846789 0.879899 0.426966 0.166835 0.022614 0.00189637 0.00612823 0.00406061 0.000238635
-0.00106571 -0.000477739 -0.000300549 0.00283178 0 0.609289 0.612772 0.628949 0.680995 0.863041
1.85133 2.13721 5.13565 5.58981 4.82726 32.5751 36.4599 52.0287 45.9845 4.75372
4.89762 3.384 3.41916 2.68177 4.08462 0.839942 0.808983 0.788511 0.806269 1.39763
1.78667 1.84654 0.991699 0.482092 0.34949 0.127445 0.0133354 0.000223344 0.00671193 0.00596751
0.0024661 0.00110045 0.00145156 0.00204885 0.00348355 0 0.608412 0.61129 0.624515 0.666113
3.25303 3.75149 4.68361 4.76164 34.3597 32.6984 44.6225 50.7633 0.802437 0.782148
0.940675 1.70335 2.62802 1.1429 0.0796627 -4.87983 -5.30037 -2.74816 -0.228537 0.190987
0.0731639 -0.00567904 -0.0110902 -0.0011254 0.000743527 -0.0012803 -0.00177648 -0.000852075 0.000285262 0.00126699
0 0.607442 0.609667 0.619686 0.65013 0.741097 2.74759 1.73311 5.18934 3.29349
0.55812 -0.675086 0.698688 0.311778 0.313562 0.143513 -1.70897 0.674104 0.282268 -0.974087
-0.393872 0.0978966 0.0646754 -0.0030907 -0.0110819 -0.00121302 0.00133241 -0.000444381 -0.000933068 -4.10239e-05
0.00103957 0.00155419 0 0.606477 0.608056 0.614838 0.634002 0.677609 0.693451 0.824145
1.1598 0.325265 0.622773 0.614058 0.619147 0.65735 0.626453 0.567436 0.384693 0.0601696
-0.564258 -0.377688 0.0461561 0.0591949 -0.00450179 -0.0152987 -0.00453142 -0.000872337 -0.00216209 -0.00240689
-0.00134819 -0.000150376 0.000436162 0 0.605613 0.6066 0.610415 0.566781 0.607373 0.607412
0.59137 0.496282 0.427733 0.0778245 -0.43521 -0.348822 -0.00102368 0.0479662 -0.00804565 -0.0189319
-0.00660003 -0.00185443 -0.00275016 -0.00281509 -0.00165861 -0.000396824 0.000258732 0 0.604934 0.605427
0.606871 0.495776 0.606433 0.595848 0.57105 0.458629 0.428286 0.0871558 -0.364941 -0.332891
-0.0275364 0.0428831 -0.00843997 -0.0200065 -0.00734463 -0.00226497 -0.00306693 -0.00306921 -0.00186645 -0.000579006
0.000122028 0 0.604496 0.604645 0.604528 0.600023 0.457505 0.564779 0.426134 0.0902495
-0.342567 -0.32774 -0.0358289 0.0413534 -0.00853433 -0.020422 -0.00770138 -0.00249285 -0.00322593 -0.00316648
-0.0019213 -0.000614417 0.000107814 7.68599e-05 0.604342 0.604363 0.603685 0.597503 0.564269 0.445208
-10.2856 -11.1434 -11.7931 70.4749 60.0592 43.8759 29.6733 2.92902 1.70292 4.40956
5.06152 4.1333 4.54469 6.17742 5.39799 2.02048 1.73088 2.13584 2.9519 3.65743
3.35065 3.95663 2.2392 1.90636 6.04253 56.2517 39.4468 1.92976 2.2545 3.64056
4.73894 2.16402 -4.52789 -11.2025 -9.84227 -3.19047 8.46503 7.00594 11.9051 4.75072
17.4659 20.8209 9.13864 10.5187 2.57353 1.49538 0.995651 1.65204 19.7327 36.9173
5.61373 39.6467 20.3312 18.8215 -58.7551 -58.5353 -58.7522 68.4653 68.3782 47.565
44.7993 3.3963 3.09881 -5.06226 0.309906 0.159417 -5.11205 2.58163 3.96791 3.93153
2.84899 1.83116 1.75146 1.6198 0.9458 0.755563 -1.36155 17.0073 28.1073 13.297
7.27814 -56.5339 -56.3274 -58.7731 -58.695 13.8771 19.1139 18.4858 -46.2889 -42.7297
-44.4082 -45.1446 -58.2791 -57.5474 -57.5328 -57.683 16.6129 15.8825 12.005 -29.3723
-27.9765 -45.3817 -37.0801 -58.8756 -45.9919 -58.6964 -48.0883 11.0122 4.28104 10.5197
11.872 9.10993 9.38474 9.67264 4.50298 11.1343 0.869697 0.699812 3.70744 3.4607
4.05435 4.30857 47.7578 68.3476 -58.8247 -56.4564 6.4952 11.1388 -51.4124 -52.7206
-58.4204 4.44853 6.28509 6.44177 6.47324 -31.4255 -40.0293 -49.4517 -29.7982 64.4113
60.7958 41.6595 41.4089 -44.0579 -56.0486 -11.5272 -8.58433 -0.44317 -24.536 -42.4794
42.9862 44.3126 64.3099 66.4812 -51.757 -49.9159 -50.6951 0.321948 -9.67119 -12.7079
-11.6869 -21.6652 -24.8591 -57.8311 44.0437 21.8551 22.1488 11.7041 12.0209 12.1943
13.1454 22.0257 44.5079 10.799 12.4621 11.9026 13.2426 -58.6732 -58.6605 -58.1127
-58.0999 -57.4847 -56.8675 -56.5091 45.8229 66.8339 -58.3336 -58.5654 -58.9734 -58.242
-29.7899 -34.9879 -32.6877 -13.6946 -1.57518 -4.89322 -50.5314 -50.1803 -57.9932 -13.096
0.144121 0.0688136 -13.3217 -58.2823 -56.7821 -51.2431 -12.4482 -10.1899 -3.6941 1.56125
-7.37421 -5.61165 -18.6509 -38.3777 -41.4575 -36.3479 -52.2347 -53.245 -52.9884 -4.1385
-17.5595 -18.3052 -4.75172 -56.0774 -51.9793 -56.1023 -3.57588 -9.29811 -16.6032 -11.6143
67.5338 46.8718 -54.219 -54.3759 -56.7938 -56.6838 -56.2031 -53.7106 -57.084 -53.1779
-55.9726 -58.9466 -59.0803 -59.1231 -32.1387 -77.0885 -96.1234 -101.079 -103.335 -102.897
-48.627 -50.2254 -54.2626 -48.2814 -50.0266 -98.2105 -99.4664 -71.3298 -34.3681 -58.4399
-59.2604 -58.9532 -56.2776 -57.1605 -57.2538 -57.1776 -57.5792 7.12008 6.04148 8.93112
-56.0222 -55.7245 -55.9393 -55.4271 -55.5465 -55.8498 -56.256 -55.1262 -55.1109 2.01109
1.80316 0.682576 1.18734 4.18702 4.55948 1.32106 -55.857 -56.317 -56.958 5.78524
6.62172 2.77634 0.871057 3.12967 -32.0491 -38.0543 -37.321 -31.6681 -54.5295 -55.0212
-57.9404 -57.6289 -54.9667 -55.8006 -38.9641 -43.3119 -43.1177 -36.9791 -46.0844 -50.1275
-53.2419 -53.3916 -52.237 123.583 131.441 146.785 146.873 -58.1066 -56.1991 -56.4713
-57.8243 -57.6815 4.43772 2.16584 3.05305 4.64043 -9.77555 -3.95326 -5.90676 -8.94491
-11.8285 -39.1076 -36.9103 -25.6264 -27.358 -32.1676 -39.1276 -24.8626 -24.8789 31.0995
41.2776 52.12 37.9287 23.0739 19.2531 34.2414 26.1378 0.670547 0.828762 1.98811
34.065 24.8944 17.0616 22.118 2.86031 3.80123 4.44831 4.55851 3.68741 6.65182
6.75623 4.58694 -9.35813 -8.24408 -1.37772 -10.2371 14.6884 9.14841 10.8237 -54.6486
-56.8781 -57.0088 -54.843 -82.6779 -81.3957 -84.6389 -47.9207 -12.6906 -18.3358 -27.5997
-56.011 -52.8466 -55.3845 -56.448 -74.0371 -73.7498 -58.39 -59.6714 -49.4829 -47.9658
-50.2083 -50.4074 3.72745 3.7874 -0.642174 5.98819 5.63965 4.64578 5.31906 5.72886
6.1331 -54.1055 -53.663 -68.7759 -67.9859 78.9998 94.0914 85.6885 112.104 106.412
88.8372 90.1538 161.846 164.175 153.354 121.628 98.4092 104.349 97.3041 117.64
-12.8849 -26.9429 -31.2545 -5.84618 -26.1284 -52.0949 -41.7254 -6.32261 93.7194 101.218
86.8024 78.2705 96.6981 88.3942 107.603 148.46 158.213 167.403 165.14 106.624
102.901 159.629 -32.6211 -7.98953 -38.3067 -28.5094 -47.6852 140.207 140.076 115.601
110.581 110.243 115.506 139.6 138.983 108.132 167.228 170.832 172.004 172.295
173.708 186.645 186.834 174.814 173.266 -32.921 -40.0431 -32.8784 -56.4137 -50.7725
-42.6243 -41.8825 -40.6179 -25.5206 2.77028 -2.59102 -0.649729 173.386 175.33 187.186
172.358 186.503 187.146 175.218 172.166 179.594 181.758 170.107 168.875 179.891
167.875 171.092 182.416 -52.6378 -37.8722 -36.6206 -55.7327 -55.7691 -55.8733 -36.411
-46.25 -36.506 -36.9679 -45.8539 -45.8221 -3.40705 -9.27462 -25.1575 -25.1936 -32.8577
-43.4924 -32.8915 -32.594 -42.9253 -21.1701 -18.9066 -20.6227 115.418 140.136 138.121
139.031 114.675 109.303 170.032 169.906 170.474 167.737 136.394 108.393 113.571
137.145 -57.1448 -54.2006 -52.8652 -52.6962 -55.7091 -46.1519 90.1135 93.3673 78.5899
-14.9485 -6.22807 -6.76331 -20.8735 54.5211 56.3822 69.9858 73.6416 -55.874 -55.1057
-55.4043 -55.8664 -57.0333 -57.2682 -57.411 -57.5246 -56.1686 -56.2706 -55.8643 -55.9663
-134.919 -109.352 -77.8023 -95.6726 -98.0342 -99.1595 -99.1513 -83.2662 -78.9471 -92.484
-70.6671 -85.5764 -133.166 -136.672 -128.565 -96.1549 -96.9329 -54.8176 -54.275 -54.977
-56.0762 -56.3625 -53.9024 -53.8271 6.77688 7.29964 13.7262 16.3469 13.8198 -50.9191
-50.204 -45.7302 -45.9529 -46.2313 -46.0329 -46.0066 -45.7926 12.9422 12.6719 16.8846
8.24596 8.04961 9.6178 10.1021 10.1279 8.49175 7.30709 8.06628 12.3934 15.7181
13.7259 0.767917 -0.866026 -3.05821 7.02014 6.1918 5.06896 6.41119 7.12884 -52.4746
-53.3537 -56.3204 -55.6418 -48.6434 -49.6185 13.6143 15.5761 16.9733 -46.8813 -49.7428
-49.8755 -46.5999 -45.7747 11.3452 11.0864 11.1291 9.54576 6.83823 -7.03824 -5.79714
5.46569 6.27666 6.24199 -48.52 -48.8584 146.475 148.498 140.911 136.954 113.322
118.289 125.7 121.169 184.603 185.879 182.18 178.422 -55.7321 -55.6647 -53.0539
-52.9632 169.635 183.356 185.054 172.992 174.448 186.569 171.027 182.141 169.623
179.275 -16.928 -19.2175 -23.9663 -28.2532 -26.8443 -22.9728 -8.73986 -3.41901 -3.84754
-9.0329 -14.0548 -13.7006 -1.03378 -9.06634 -9.93598 -15.0211 -18.1532 -8.22109 -8.97473
-24.9625 -20.2327 -9.65897 -0.781867 -3.05282 6.06103 -3.47007 6.04374 6.8049 3.34759
3.88157 4.60336 4.16735 7.70893 6.08429 3.93227 5.78683 -18.9139 -15.9991 -26.3336
-21.4682 -56.4275 -58.1647 -58.7622 -58.6235 3.01229 3.08077 5.03049 5.51381 4.27103
4.87084 -14.5702 -40.3103 -57.2583 -65.4781 -53.2754 -31.9248 -58.9385 10.7376 10.1928
10.2159 -2.50343 0.160905 11.9872 17.2631 9.49519 23.7456 20.6413 10.4488 1.63567
6.80958 8.30775 13.119 11.5496 6.76223 -53.468 -44.0389 -49.9144 -13.0869 -43.9296
-24.984 -60.6515 -83.7634 108.653 92.7044 106.181 108.334 112.724 111.852 172.881
172.005 173.256 172.572 171.274 185.961 185.962 185.197 -57.9941 -58.2102 174.483
-56.1991 -56.1972 -57.1202 -57.2852 -56.9893 -55.8836 -150.161 -137.125 -136.985 -133.628
-157.771 -136.867 -132.596 -132.921 -119.526 -115.166 -80.5529 -73.1793 -73.4792 -70.8878
-119.447 -121.113 -56.7735 -55.7644 -54.6716 -57.1377 9.48426 7.13321 10.6746 8.22059
10.9961 12.0204 12.3946 13.3472 14.141 -55.253 -54.3337 -56.3225 -55.134 -53.1831
-52.9221 -53.0326 -54.9595 -5.99778 -0.489907 -1.43348 -4.62105 9.16615 9.53916 6.78764
5.82554 7.53411 9.52275 8.76348 6.68076 1.29526 8.14574 7.04085 6.88078 8.66543
10.3924 9.20845 12.0374 11.3219 -54.7096 -55.1319 -55.1803 -55.3054 -55.4578 -55.3136
-54.817 -52.7836 -54.0994 -54.108 -54.1295 -51.1089 -52.4986 -73.8285 -73.0513 -57.6634
-59.9574 -77.6369 -68.4731 -77.5669 -124.032 -128.627 -136.251 -79.5777 -97.6307 -107.471
-80.4399 -98.9749 128.742 113.576 148.51 151.735 -54.6359 -53.8588 -54.9744 -54.9618
-53.1638 143.888 167.873 146.147 -49.0356 -48.2016 -48.6328 -49.4058 -49.2047 -49.223
-49.1498 -47.6853 -8.11002 -9.40208 -11.9458 -11.0542 -14.8942 -17.0796 -19.2275 -17.0071
-17.9371 74.8119 85.5084 -58.5498 51.2275 76.5305 65.001 75.5067 60.9668 13.7138
10.7509 45.4825 36.4962 8.32084 9.16044 3.6161 5.28155 5.08958 7.76952 6.69314
7.06211 7.44479 8.2483 -52.7834 -52.3397 -52.0661 -52.6556 -1.05174 -0.547842 -1.1239
2.24514 5.6842 5.12511 7.08168 6.51132 -50.9833 -51.39 -51.1155 138.19 136.267
171.186 184.778 189.083 189.369 186.86 185.337 -55.781 -55.4874 -55.8101 -55.6389
-53.1915 -45.7134 -46.526 -47.1298 -46.3465 -46.6673 -47.9466 -56.0723 -56.0968 -56.6858
-57.3228 -57.0288 -57.0131 -57.1727 -56.7876 -55.1353 -115.829 -111.463 -135.216 -111.743
-134.126 -122.266 -123.717 -133.601 -56.1732 -57.4794 -55.9159 -54.6156 13.677 12.3106
11.2912 12.4635 12.6938 13.3359 -36.7833 -36.2819 -31.5002 -30.9447 -41.7578 -42.3002
-46.4709 -46.0761 -51.1195 -51.1684 -45.5605 -52.2 -51.8402 -6.19853 -0.954334 -11.4692
0.597331 2.03858 7.98054 7.51515 7.84388 4.24277 10.6625 7.31981 8.73514 10.2245
10.8703 10.7656 10.9064 12.6733 12.344 2.3129 12.4128 14.8025 15.978 3.85416
3.36059 3.09833 3.78155 -58.9445 -58.0912 -52.9489 -56.5397 -44.7205 -44.1841 -40.1582
-44.5105 -45.9269 -49.9703 -51.1856 -49.6133 -49.8387 -49.5949 -47.1105 -52.2155 -47.2929
4.16791 -48.3038 -49.5952 140.988 131.793 129.395 129.436 129.816 114.329 106.902
188.659 188.133 187.138 -50.7293 -51.0563 -1.36181 -0.795894 0.238139 -29.6535 -30.5572
186.055 186.89 180.368 183.327 181.873 181.502 -33.2638 -29.1039 -3.12283 -7.77225
-5.8916 -3.16863 -24.7757 -13.6309 -10.2164 -13.4063 -19.8495 -4.58179 80.8642 56.5162
60.8484 21.0697 21.4359 68.0142 110.703 10.1474 7.19087 -2.27843 -2.53251 6.82838
7.62325 7.91235 6.10239 6.55632 24.5359 16.298 -0.417639 19.759 -1.80005 3.46324
8.15589 8.07819 68.0191 110.206 -54.7138 -55.8202 18.1174 91.4975 108.97 100.387
92.4325 108.051 109.166 126.578 134.317 143.192 -55.8472 81.5262 73.5038 50.3122
12.5556 18.6119 16.7835 -75.4854 -56.8562 -56.8496 -56.8528 -55.308 -55.228 -59.9511
-55.5006 -59.9474 -60.5222 23.4289 -6.52267 5.97125 10.5835 10.8199 -1.44584 -1.55262
-2.67456 -55.5833 -54.1078 -1.03112 2.52201 2.82853 -57.5309 -56.9712 -56.1205 7.95205
7.64449 4.10215 -56.6257 41.6559 49.5761 -66.793 -59.0173 17.3846 14.8856 8.96931
6.88623 5.04959 8.49366 6.93875 -54.1472 -54.1102 -52.9387 -52.8621 -55.812 -52.22
-51.7435 -54.4372 -54.7444 -54.7347 -54.2171 -55.3183 -54.8875 -54.7459 -54.487 4.46662
-51.7342 -57.8074 -56.7732 100.516 129.141 144.71 155.17 168.089 162.919 160.731
148.736 188.241 -52.8367 -53.7726 -51.9209 -7.38959 -10.4232 -3.25125 -49.7197 -49.7513
-49.7062 -49.9707 -53.1761 -47.3256 -48.8077 -47.5872 -47.1255 -47.8209 28.8478 20.2784
-112.283 -119.885 -119.741 -120.378 -120.722 -73.9204 -96.492 -73.9236 13.3662 17.0061
-10.9561 12.0591 11.4997 -5.53027 -7.1109 4.07968 2.46273 0.953377 0.601214 -0.675377
-2.29173 -1.03431 4.11709 4.48931 0.553727 2.80407 4.46328 2.37444 1.28678 13.2921
17.6062 -50.1132 5.49195 12.7454 8.48427 16.4764 8.43834 11.158 14.1837 15.9589
4.7651 4.97105 6.47107 5.89537 -2.1239 -4.05335 -6.31762 -6.21897 4.85671 1.61744
4.34129 9.43927 15.351 16.5559 8.22806 5.63359 2.99789 2.68776 7.1607 10.6528
11.3114 11.9575 11.0926 5.67297 -3.61913 5.54715 -2.85751 3.16189 -3.62808 2.40385
11.0261 8.34906 12.4082 6.97551 9.4971 11.4228 10.8095 10.5085 7.93897 8.64824
9.17296 9.42245 7.89641 7.3584 7.37928 6.00384 -5.53075 -9.05156 -7.26427 6.47584
5.88451 7.9727 6.23844 -9.27575 -11.0425 1.04078 7.04358 5.85778 -1.72966 5.6442
-137.331 -138.031 -138.174 10.2604 -55.5846 -54.5407 -54.5929 5.22506 9.9027 5.29243
8.37132 10.9896 -55.74 -55.7014 -55.0737 -54.7681 -60.9939 -60.4938 -60.9816 -69.0355
-116.048 -119.873 -113.732 -120.592 -48.9749 -49.5007 -47.5043 -47.2081 -47.461 -47.1861
-14.6977 -14.6971 -17.1179 -52.5907 -52.4067 -52.1673 5.11736 1.48511 4.96666 4.93516
-51.9684 -52.3988 -52.5209 141.744 151.098 -55.2878 -50.7184 13.3353 13.9116 11.5833
7.17272 11.4554 18.7359 4.21471 3.33191 4.67187 3.67334 -53.2732 -57.2415 -57.0481
-55.2887 7.75726 15.0967 11.1218 4.09594 4.25068 10.1036 8.8517 9.5369 8.65057
10.4206 12.4428 10.2894 5.82246 8.57278 8.22247 -54.1279 -50.1603 -48.565 91.2286
80.26 84.2242 66.7526 72.7368 -4.78027 -2.90274 0.336338 -1.43627 7.63131 8.14392
7.68293 8.27357 8.03037 7.5243 7.07178 116.832 106.796 94.755 -73.8482 -57.2883
-55.9952 -54.8634 -54.6908 -54.3107 -54.2838 163.48 139.763 161.89 161.999 7.65058
4.53067 10.6403 11.3432 7.20408 8.54469 7.43127 6.90586 6.15687 2.75566 -2.39397
4.76129 5.40056 5.98241 4.37642 6.68689 14.4913 9.07048 -12.8917 15.6392 14.2899
7.62442 10.7406 16.0182 9.16349 -12.7576 -13.6812 -11.7505 -2.881 -4.9319 -13.236
7.23571 5.26233 -14.7959 -16.4112 7.15711 4.84046 -1.0586 -3.96257 -54.9987 -46.0237
13.0945 1.94089 0.261843 -0.133586 5.98514 5.54373 6.47281 6.06362 6.02023 5.60701
0.306365 6.28006 6.91915 -0.436903 5.72596 4.7455 7.20014 6.6885 6.1121 106.201
86.6689 122.018 123.803 5.20123 4.92724 3.46042 -55.2108 5.13076 6.12725 5.90382
-9.5372 -12.5018 -0.180229 6.27826 6.77222 5.40964 8.08978 5.21913 6.90997 3.90299
37.0433 -53.196 -55.1646 -54.6685 -54.6285 -54.6982 -2.9237 -4.29991 -12.6455 -12.5142
-12.5365 -3.50082 9.38338 3.09096 5.95964 7.06798 2.57413 2.35555 0.0732882 -0.898516
-10.9585 -5.25382 -4.14901 -11.3333 -4.20871 -12.2029 5.59097 -11.4423 -12.4719 -2.48767
1.21912 6.37744 6.38642 5.81696 8.9015 0.252845 6.68134 -3.0822 -1.08834 4.38945
-0.768067 7.26871 4.88967 -9.85204 9.04892 -0.63223 6.17182 1.06468 1.45761 4.83626
5.18975 4.2819 4.99698 3.09492 7.68951 8.93296 5.47938 6.09972 0.974445 3.46845
11.1308 5.55196 0.833483 -0.530193 3.6361 173.148 176.973 176.114 181.027 169.126
168.096 172.676 179.945 180.937 69.4742 73.6799 54.8295 -56.159 -41.4751 -38.5914
-36.8706 -30.9799 -43.8273 -51.9118 -51.5624 -55.3118 -46.7952 100.743 154.471 162.11
155.251 146.986 -56.6324 -56.2291 -56.5615 -56.3359 -55.8372 -56.2967 -54.9169 -55.2215
-55.062 3.99571 -0.291031 171.241 -18.3921 186.017 190.264 189.412 -51.2825 -47.2518
182.752 185.882 186.058 -16.3992 -51.1031 85.2649 -55.0129 -55.1426 -55.4002 -55.3642
-49.4927 189.384 -2.37862 189.503 185.524 189.097 7.37776 -64.2964 110.582 109.889
-55.899 4.62155 -51.761 -53.0737 -51.8743 -138.396 138.73 -54.8616 159.195 -51.9962
-120.802 -120.72 72.2676 6.97874 2.61727 168.082 164.695 -15.4164 139.848 191.107
190.003 185.406 189.454 190.792 189.787 172.797 191.162 186.783 189.957 191.197
0.615035 0.61057 0.635887 0.704985 0.918867 1.62271 2.20861 -3.98429 1.35676 0.0241066
-4.09984 -5.86909 0.408932 0.0901272 -0.00188533 0.00496754 0.0099995 0.0054124 0.000850688 -0.000685168
-0.000363003 0.000203019 0.00112437 0.000607129 -54.0985 -52.3774 -134.067 -134.623 -48.0184 -48.4683
-49.1229 -47.86 -48.352 -49.0493 -49.6956 -47.3721 -95.0543 -74.7015 -48.845 -47.2346
-74.1407 -48.7686 -51.2125 -51.5662 -50.6872 -99.6338 -111.273 -129.567 -119.871 -119.69

U 3 2021 float
20.0062 -0.0458184 -0.215659 20.0438 -0.0307974 -0.0739639 19.9291 -0.00647614 -0.0964298 19.9356 -0.0558728
-0.606158 20.0176 -0.0596489 0.0399557 20.0179 -0.0595434 0.0399884 20.1681 -0.078564 0.057492
20.2328 -0.0867561 0.0655195 20.2783 -0.091755 0.149172 20.291 -0.116768 0.263552 20.2099
-0.118038 0.208443 19.9544 -0.0475341 0.0198852 19.9967 -0.054983 0.0183771 20.0037 -0.0532658
0.00699468 19.8527 -0.0247163 0.0177228 19.8515 -0.0214762 0.0141877 20.0059 -0.0529707 0.0019075
19.8539 -0.0200554 0.00971221 20.0043 -0.0521477 0.000527085 19.853 -0.0183911 0.00882082 20.0026
-0.0513241 -5.0229e-06 19.8517 -0.0168324 0.00852512 20.0011 -0.0505622 -0.000286039 19.8505 -0.0154924
0.00829371 19.9995 -0.0498766 -0.000467737 19.8495 -0.0143265 0.00807867 19.9979 -0.0492183 -0.000594051
19.8484 -0.0132637 0.00788994 19.9962 -0.0485708 -0.000692259 19.8473 -0.012297 0.00769044 19.9945
-0.0479374 -0.000727903 19.8462 -0.0114117 0.00759986 19.9926 -0.0472831 -0.00081866 19.8452 -0.0104804
0.00731999 19.8447 -0.00999538 0.00701819 19.9923 -0.0470737 -0.000859215 19.9996 -0.000342757 3.12927e-05
20 0 0 20 0 0 19.9996 -0.000342853 7.8718e-05 19.9983
-0.000791412 9.38771e-05 19.9984 -0.00080115 0.00027878 19.9942 -0.00155818 0.000367956 19.9941 -0.00152286
0.00099971 19.9788 -0.00281227 0.000335211 19.9796 -0.0031355 0.0035764 19.9464 -0.00548157 -0.00905493
19.9363 -0.00623581 -0.00796174 19.9389 0.00225644 -0.014318 19.9277 -0.00547673 -0.0294938 19.9061
0.00520812 -0.0609792 20.2331 -0.0728988 0.0018392 20.0484 -0.0289588 -0.0566094 20.2353 -0.0719823
0.00510675 19.9271 -0.0896567 0.0305494 20.0248 -0.119174 0.0819771 20.2325 -0.0867244 0.0650012
19.8547 -0.0299574 0.0234416 19.3066 0.120654 0.0100293 19.3387 0.11807 0.011165 19.3668
0.112312 0.0112361 19.388 0.108009 0.0119356 19.4063 0.104215 0.0124521 19.4234 0.100609
0.0126375 19.4394 0.0971987 0.01265 19.4544 0.0939882 0.0125835 19.4687 0.090927 0.0124482
19.4819 0.0880338 0.0123379 19.4966 0.0852043 0.0120575 19.5054 0.083746 0.0117982 20
0 0 19.9996 -0.00034346 0.00013739 19.9985 -0.000799707 0.000490446 19.9945 -0.00152888
0.00171913 19.9801 -0.00325835 0.00603164 19.9197 -0.00879526 0.0107388 19.9195 -0.0079591 0.00100512
19.85 -0.016618 -0.0957085 19.7934 -0.0205544 -0.0681229 19.9553 -0.051143 -1.02358 20.4348
-0.0679543 -0.934179 20.2158 -0.0535352 -0.508787 19.9304 -0.0558956 -0.635642 20.3097 -0.164713
0.45288 20.3101 -0.165602 0.456338 20.1 -0.251315 0.581072 19.9903 -0.240389 0.300208