# vtk DataFile Version 2.0
tracks
ASCII
DATASET POLYDATA
POINTS 2595 float
-1.001 -0.05 0.0011 -0.900789 -0.0500216 0.00109731 -0.800577 -0.0500431 0.00109463 -0.700366 -0.0500645
0.00109196 -0.600155 -0.0500859 0.00108929 -0.499943 -0.0501072 0.00108663 -0.424945 -0.0501112 0.00107895
-0.349947 -0.0501521 0.00106885 -0.274949 -0.0501927 0.00105884 -0.19995 -0.0502329 0.00104892 -0.124952
-0.0502727 0.0010391 -0.0499538 -0.0502822 0.00103934 0.0250446 -0.0502912 0.00104807 0.100043 -0.0503003
0.00105688 0.175041 -0.0503095 0.00106576 0.25004 -0.0503187 0.00107471 0.400037 -0.0503128 0.0010908
0.550035 -0.0503112 0.00110503 0.700032 -0.0503095 0.00111945 0.85003 -0.0503079 0.00113405 1.00003
-0.0503062 0.00114885 1.15003 -0.0503169 0.00115604 1.30002 -0.0503228 0.00116052 1.45002 -0.0503287
0.00116503 1.60002 -0.0503346 0.00116955 1.75002 -0.0503405 0.00117408 1.90002 -0.0503491 0.00117695
2.05002 -0.0503557 0.00117889 2.20001 -0.0503624 0.00118083 2.35001 -0.050369 0.00118277 2.50001
-0.0503757 0.00118472 2.65001 -0.0503837 0.00118577 2.80001 -0.0503919 0.00118646 2.95001 -0.0504001
0.00118716 3.10001 -0.0504084 0.00118786 3.25001 -0.0504166 0.00118855 3.40001 -0.0504245 0.00118884
3.55001 -0.0504335 0.00118942 3.70001 -0.0504424 0.00119 3.85001 -0.0504514 0.00119059 4.00001
-0.0504604 0.00119117 4.15 -0.0504682 0.00119125 4.3 -0.0504779 0.00119193 4.45 -0.0504876
0.0011926 4.6 -0.0504974 0.00119328 4.75 -0.0505071 0.00119396 4.9 -0.0505148 0.00119396
5.05 -0.050525 0.0011948 5.2 -0.0505353 0.00119564 5.35 -0.0505455 0.00119648 5.5
-0.0505557 0.00119732 5.65 -0.0505633 0.00119728 5.8 -0.0505739 0.00119828 5.95 -0.0505844
0.00119928 6.1 -0.0505949 0.00120028 6.25 -0.0506055 0.00120129 6.4 -0.050613 0.00120121
6.55 -0.0506238 0.00120235 6.7 -0.0506345 0.00120349 6.85 -0.0506453 0.00120463 7
-0.050656 0.00120577 7.15 -0.0506635 0.00120568 7.3 -0.0506744 0.00120693 7.45 -0.0506853
0.00120818 7.6 -0.0506962 0.00120943 7.75 -0.0507071 0.00121068 7.9 -0.0507145 0.00121057
8.05 -0.0507255 0.00121191 8.2 -0.0507365 0.00121325 8.35 -0.0507475 0.00121459 8.5
-0.0507585 0.00121593 8.65 -0.0507659 0.00121582 8.8 -0.0507769 0.00121724 8.95 -0.050788
0.00121865 9.1 -0.0507991 0.00122007 9.25 -0.0508102 0.0012215 9.4 -0.0508175 0.00122137
9.55 -0.0508751 0.00122351 9.7 -0.0509845 0.00122641 9.85 -0.0511456 0.00123005 10
-0.0513584 0.00123444 -1.001 -0.05 0.0537316 -0.900807 -0.0501062 0.0535766 -0.800614 -0.0502126
0.0533944 -0.700421 -0.0503427 0.0531786 -0.600229 -0.0505038 0.0529272 -0.500035 -0.0506959 0.0526405
-0.425004 -0.0509443 0.0524186 -0.349973 -0.0512821 0.0521298 -0.274943 -0.0516674 0.0518621 -0.199912
-0.0520865 0.0516366 -0.124879 -0.0524902 0.0514933 -0.0498864 -0.052758 0.0515304 0.0251065 -0.0529801
0.0516963 0.100099 -0.0531975 0.0519306 0.175092 -0.0534244 0.052213 0.250087 -0.0536464 0.0525303
0.400077 -0.0540367 0.0531654 0.550067 -0.0544245 0.0536798 0.700057 -0.0547709 0.0541456 0.850047
-0.0550759 0.0545625 1.00003 -0.0553474 0.0549298 1.14684 -0.0557187 0.0552079 1.29364 -0.0560584
0.0554675 1.44044 -0.0563954 0.0556934 1.58724 -0.0567297 0.0558857 1.70467 -0.0569951 0.0560126
1.71374 -0.0570163 0.056021 1.72281 -0.0570377 0.0560294 1.73188 -0.0570591 0.0560377 1.74095
-0.0570807 0.0560459 1.75002 -0.0571024 0.0560541 1.90002 -0.0574623 0.0561874 2.05002 -0.0578179
0.0563035 2.20001 -0.0581698 0.056402 2.35001 -0.0585178 0.0564828 2.50001 -0.058862 0.056546
2.65001 -0.0592112 0.056598 2.80001 -0.0595602 0.0566434 2.95001 -0.0599085 0.0566811 3.10001
-0.0602559 0.056711 3.25001 -0.0606024 0.0567333 3.40001 -0.0609497 0.0567505 3.55001 -0.0612986
0.056767 3.70001 -0.0616459 0.0567814 3.85001 -0.0619918 0.0567938 4.00001 -0.0623361 0.0568042
4.15 -0.062678 0.0568121 4.3 -0.0630239 0.0568211 4.45 -0.0633683 0.0568293 4.6
-0.0637112 0.0568367 4.75 -0.0640526 0.0568434 4.9 -0.0643889 0.0568478 5.05 -0.0647308
0.0568541 5.2 -0.0650714 0.0568601 5.35 -0.0654105 0.0568656 5.5 -0.0657483 0.0568708
5.65 -0.0660791 0.0568734 5.8 -0.0664165 0.0568786 5.95 -0.0667527 0.0568835 6.1
-0.0670876 0.0568881 6.25 -0.0674213 0.0568926 6.4 -0.0677468 0.056894 6.55 -0.0680796
0.0568985 6.7 -0.0684113 0.0569028 6.85 -0.0687418 0.056907 7 -0.069071 0.056911
7.15 -0.0693913 0.0569117 7.3 -0.0697195 0.0569158 7.45 -0.0700465 0.0569197 7.6
-0.0703723 0.0569235 7.75 -0.070697 0.0569272 7.9 -0.0710122 0.0569274 8.05 -0.0713356
0.0569312 8.2 -0.0716579 0.056935 8.35 -0.071979 0.0569388 8.5 -0.072299 0.0569425
8.65 -0.0726091 0.0569426 8.8 -0.0729277 0.0569464 8.95 -0.0732452 0.0569501 9.1
-0.0735615 0.0569537 9.25 -0.0738766 0.0569572 9.4 -0.0741815 0.0569568 9.55 -0.0744957
0.0569603 9.7 -0.0748094 0.0569639 9.85 -0.0751225 0.0569674 10 -0.0754351 0.0569708
-1.001 -0.05 0.106363 -0.900818 -0.0500781 0.106138 -0.800636 -0.050154 0.105866 -0.700455
-0.0502567 0.105547 -0.600274 -0.0504296 0.105006 -0.50009 -0.0506725 0.104246 -0.424996 -0.0509597
0.103662 -0.349901 -0.0513084 0.103058 -0.274807 -0.0516614 0.102523 -0.199711 -0.0519601 0.102095
-0.124607 -0.0523033 0.101994 -0.0496046 -0.0525527 0.102107 0.0253975 -0.0527476 0.102337 0.100399
-0.0529296 0.102649 0.175401 -0.0531322 0.103046 0.250411 -0.053355 0.103527 0.400346 -0.0537657
0.104525 0.550283 -0.0541749 0.105396 0.70022 -0.0545452 0.106178 0.850157 -0.0548847 0.106795
1.00009 -0.0551933 0.107245 1.15007 -0.0556373 0.10751 1.30006 -0.055937 0.107807 1.45005
-0.0561853 0.108084 1.60003 -0.0564277 0.108327 1.75002 -0.0566642 0.108539 1.90002 -0.0569741
0.108683 2.05002 -0.0572211 0.108839 2.20001 -0.0574624 0.108978 2.35001 -0.0577011 0.109101
2.50001 -0.0579373 0.109206 2.65001 -0.0582293 0.109275 2.80001 -0.05848 0.109343 2.95001
-0.0587294 0.109403 3.10001 -0.0589781 0.109456 3.25001 -0.0592261 0.109502 3.40001 -0.0595164
0.109536 3.55001 -0.0597709 0.10957 3.70001 -0.0600235 0.109601 3.85001 -0.0602745 0.109631
4 -0.060524 0.109658 4.15 -0.0608081 0.109684 4.3 -0.0610624 0.109706 4.45
-0.061315 0.109726 4.6 -0.0615659 0.109746 4.75 -0.0618153 0.109765 4.9 -0.0620929
0.109788 5.05 -0.0623452 0.109803 5.2 -0.0625959 0.109818 5.35 -0.0628452 0.109833
5.5 -0.063093 0.109847 5.65 -0.0633641 0.109867 5.8 -0.0636139 0.109879 5.95
-0.0638621 0.109889 6.1 -0.0641091 0.1099 6.25 -0.0643548 0.10991 6.4 -0.0646198
0.10993 6.55 -0.0648666 0.109938 6.7 -0.065112 0.109945 6.85 -0.0653562 0.109953
7 -0.0655992 0.10996 7.15 -0.0658584 0.109979 7.3 -0.066102 0.109984 7.45
-0.0663443 0.10999 7.6 -0.0665855 0.109995 7.75 -0.0668254 0.11 7.9 -0.0670789
0.110018 8.05 -0.0673192 0.110022 8.2 -0.0675582 0.110026 8.35 -0.0677961 0.110029
8.5 -0.0680329 0.110033 8.65 -0.0682808 0.11005 8.8 -0.0685175 0.110053 8.95
-0.068753 0.110055 9.1 -0.0689873 0.110058 9.25 -0.0692204 0.11006 9.4 -0.0694626
0.110077 9.55 -0.0696961 0.110078 9.7 -0.0699289 0.110079 9.85 -0.0701613 0.11008
10 -0.0703931 0.11008 -1.001 -0.05 0.158995 -0.900796 -0.0500886 0.15877 -0.800593
-0.0501932 0.158425 -0.700392 -0.050355 0.157689 -0.600196 -0.050587 0.156479 -0.499992 -0.0508809
0.154642 -0.42472 -0.0514881 0.153041 -0.349437 -0.0519554 0.152123 -0.274149 -0.052352 0.151564
-0.19886 -0.0527467 0.151274 -0.1237 -0.0530643 0.151329 -0.0487806 -0.0531884 0.151493 0.0261371
-0.0532684 0.151973 0.101053 -0.0534101 0.152677 0.175968 -0.0535788 0.153475 0.250944 -0.0537348
0.154301 0.400784 -0.0539504 0.155721 0.550625 -0.0544612 0.156896 0.700468 -0.0549373 0.157649
0.850313 -0.0553389 0.158247 1.00014 -0.0557094 0.158678 1.15012 -0.0562162 0.158924 1.30009
-0.0565781 0.159202 1.45007 -0.0568461 0.159471 1.60005 -0.0570365 0.159726 1.75002 -0.0572211
0.159948 1.90002 -0.05748 0.160103 2.05002 -0.0576757 0.160269 2.20002 -0.0578592 0.160422
2.35001 -0.0580339 0.160559 2.50001 -0.0582062 0.160678 2.65001 -0.0584347 0.160762 2.80001
-0.0586218 0.160845 2.95001 -0.0588065 0.16092 3.10001 -0.0589896 0.160989 3.25001 -0.0591721
0.161049 3.40001 -0.0593969 0.1611 3.55001 -0.0595861 0.161149 3.70001 -0.0597724 0.161197
3.85001 -0.0599565 0.161243 4 -0.060139 0.161287 4.15 -0.0603561 0.161329 4.3
-0.0605436 0.161367 4.45 -0.0607286 0.161405 4.6 -0.0609113 0.161442 4.75 -0.0610926
0.161478 4.9 -0.0613017 0.161518 5.05 -0.061486 0.16155 5.2 -0.061668 0.161582
5.35 -0.061848 0.161614 5.5 -0.0620267 0.161645 5.65 -0.0622283 0.161683 5.8
-0.0624089 0.161711 5.95 -0.0625875 0.161739 6.1 -0.0627645 0.161767 6.25 -0.0629402
0.161795 6.4 -0.0631348 0.161831 6.55 -0.0633116 0.161857 6.7 -0.0634866 0.161882
6.85 -0.0636601 0.161906 7 -0.0638324 0.161931 7.15 -0.0640203 0.161966 7.3
-0.0641932 0.161989 7.45 -0.0643645 0.162012 7.6 -0.0645344 0.162034 7.75 -0.064703
0.162056 7.9 -0.0648847 0.162091 8.05 -0.0650537 0.162112 8.2 -0.0652212 0.162133
8.35 -0.0653873 0.162154 8.5 -0.0655523 0.162174 8.65 -0.0657281 0.162208 8.8
-0.065893 0.162228 8.95 -0.0660565 0.162248 9.1 -0.0662185 0.162267 9.25 -0.0663794
0.162286 9.4 -0.0665489 0.162319 9.55 -0.06671 0.162337 9.7 -0.0668703 0.162354
9.85 -0.0670298 0.162371 10 -0.0671889 0.162388 -1.001 -0.05 0.211626 -0.947633
-0.0500807 0.211469 -0.894265 -0.0501659 0.211279 -0.840898 -0.0502557 0.211055 -0.787532 -0.0503901
0.210764 -0.724326 -0.0506338 0.210287 -0.679446 -0.0509114 0.209637 -0.634571 -0.0512464 0.208759
-0.589699 -0.0515853 0.207744 -0.54483 -0.0519291 0.206592 -0.499928 -0.0522794 0.2053 -0.469364
-0.0525742 0.204246 -0.438802 -0.0528792 0.203128 -0.408235 -0.0531686 0.202138 -0.377665 -0.0534436
0.20127 -0.329205 -0.0538642 0.200029 -0.288324 -0.0542033 0.199127 -0.247439 -0.0545424 0.198443
-0.20655 -0.0548858 0.19807 -0.165659 -0.0551936 0.197983 -0.124885 -0.0554273 0.198157 -0.049613
-0.0557352 0.198871 0.0256569 -0.0558747 0.199822 0.100922 -0.0559865 0.201102 0.176185 -0.0561319
0.202461 0.251488 -0.0562705 0.203613 0.251537 -0.0562705 0.203614 0.251587 -0.0562706 0.203615
0.251636 -0.0562707 0.203615 0.251685 -0.0562708 0.203616 0.251735 -0.0562709 0.203617 0.326442
-0.0563874 0.204595 0.401151 -0.0565059 0.205446 0.475861 -0.0566265 0.20617 0.550572 -0.0567754
[...]
POINT_DATA 2595
FIELD attributes 4
age 1 2595 float
0 0.00501121 0.0100224 0.0150336 0.0200448 0.025056 0.0288056 0.0325533 0.036301 0.0400488 0.0437965
0.0475449 0.0512906 0.0550362 0.0587817 0.0625272 0.070024 0.0775229 0.0850219 0.0925208 0.10002
0.10752 0.115019 0.122519 0.130019 0.137519 0.145019 0.152519 0.160019 0.167518 0.175018
0.182518 0.190018 0.197517 0.205017 0.212517 0.220017 0.227516 0.235016 0.242516 0.250015
0.257515 0.265015 0.272515 0.280014 0.287514 0.295014 0.302514 0.310014 0.317513 0.325013
0.332513 0.340013 0.347512 0.355012 0.362512 0.370012 0.377512 0.385011 0.392511 0.400011
0.407511 0.415011 0.42251 0.43001 0.43751 0.44501 0.452509 0.460009 0.467509 0.475009
0.482509 0.490009 0.497508 0.505008 0.512508 0.520008 0.527507 0.535005 0.542503 0.55
0 0.005026 0.0100533 0.0150746 0.0200878 0.0250929 0.028832 0.0325652 0.0362917 0.0400113
0.0437248 0.047431 0.0511303 0.0548278 0.0585251 0.0622243 0.069635 0.0770711 0.0845219 0.0919874
0.0994676 0.106802 0.114137 0.121474 0.128812 0.134683 0.135136 0.135589 0.136043 0.136496
0.13695 0.14445 0.15195 0.15945 0.166949 0.174447 0.181945 0.189442 0.19694 0.204437
0.211934 0.219431 0.226928 0.234425 0.241922 0.249419 0.256917 0.264414 0.271912 0.279409
0.286907 0.294406 0.301904 0.309402 0.3169 0.324398 0.331897 0.339395 0.346894 0.354393
0.361891 0.369391 0.37689 0.384389 0.391888 0.399387 0.406887 0.414386 0.421886 0.429386
0.436885 0.444386 0.451886 0.459386 0.466886 0.474386 0.481887 0.489388 0.496888 0.504389
0.51189 0.519391 0.526892 0.534393 0.541894 0.549395 0 0.00502799 0.0100578 0.0150818
0.0200993 0.0251104 0.0288575 0.0325974 0.0363282 0.0400541 0.0437703 0.0474751 0.051174 0.0548719
0.0585689 0.0622653 0.0696637 0.0770892 0.0845327 0.0919983 0.0994856 0.106989 0.114493 0.122
0.129509 0.137018 0.144534 0.152042 0.159551 0.167058 0.174565 0.182078 0.189584 0.197089
0.204595 0.2121 0.219611 0.227116 0.234621 0.242126 0.249632 0.257144 0.264649 0.272155
0.27966 0.287166 0.294679 0.302185 0.30969 0.317196 0.324702 0.332216 0.339722 0.347228
0.354734 0.362241 0.369755 0.377261 0.384768 0.392274 0.399781 0.407295 0.414802 0.422309
0.429816 0.437323 0.444838 0.452346 0.459853 0.46736 0.474868 0.482383 0.489891 0.497399
0.504907 0.512415 0.51993 0.527439 0.534947 0.542455 0.549963 0 0.00503009 0.0100662
0.0150995 0.0201269 0.0251494 0.0289151 0.032669 0.036411 0.0401426 0.0438574 0.0475524 0.051242
0.0549305 0.0586182 0.0623095 0.0696966 0.07712 0.084574 0.0920445 0.0995362 0.107048 0.114562
0.12208 0.129602 0.137126 0.144655 0.152178 0.159702 0.167224 0.174747 0.182275 0.189796
0.197316 0.204837 0.212357 0.219884 0.227404 0.234925 0.242445 0.249965 0.257493 0.265013
0.272534 0.280055 0.287576 0.295104 0.302625 0.310146 0.317667 0.325189 0.332717 0.340239
0.34776 0.355282 0.362804 0.370333 0.377854 0.385376 0.392898 0.40042 0.40795 0.415472
0.422994 0.430517 0.438039 0.445569 0.453092 0.460615 0.468137 0.47566 0.483191 0.490714
0.498237 0.50576 0.513283 0.520814 0.528338 0.535861 0.543385 0.550909 0 0.00268268
0.00536704 0.00805308 0.0107385 0.0139169 0.0161723 0.0184272 0.0206814 0.0229348 0.0251891 0.0267213
0.0282513 0.0297784 0.0313026 0.033713 0.0357387 0.0377587 0.0397733 0.0417823 0.04378 0.0474589
0.051139 0.0548205 0.0585084 0.0622091 0.0622115 0.062214 0.0622164 0.0622188 0.0622213 0.0659012
0.0695912 0.0732912 0.0770015 0.0807219 0.0813161 0.0819104 0.0825047 0.0830991 0.0836789 0.0868339
0.0899914 0.0931516 0.0963143 0.0994791 0.107 0.114522 0.122049 0.12958 0.137117 0.144661
0.152197 0.159734 0.167271 0.174808 0.182351 0.189886 0.197421 0.204956 0.212491 0.220033
0.227568 0.235103 0.242638 0.250173 0.257715 0.26525 0.272786 0.280321 0.287857 0.295399
0.302935 0.310471 0.318007 0.325543 0.333086 0.340622 0.348158 0.355695 0.363231 0.370775
0.378311 0.385848 0.393384 0.400921 0.408465 0.416002 0.423539 0.431076 0.438614 0.446158
0.453696 0.461233 0.468771 0.476308 0.483853 0.491391 0.498929 0.506467 0.514005 0.52155
0.529088 0.536627 0.544165 0.551703 0 0.00126444 0.00252926 0.00379476 0.00506106 0.00632818
0.0101157 0.0139115 0.0177189 0.0215329 0.0253294 0.0269145 0.0284894 0.0300575 0.0316184 0.0330158
0.0333389 0.0336617 0.0339841 0.0343064 0.0346286 0.0364567 0.0382778 0.0400899 0.0418968 0.0436943
0.0454948 0.0472999 0.0491171 0.0509392 0.0527654 0.0529 0.0530345 0.0531691 0.0533037 0.0534441
0.0551396 0.056838 0.0585391 0.0602432 0.0619499 0.0656457 0.0693583 0.0730888 0.0768301 0.0805804
0.0843439 0.0881066 0.09187 0.0956361 0.0994046 0.10694 0.114478 0.12202 0.129566 0.137116
0.144682 0.152235 0.159788 0.167341 0.174894 0.182454 0.190006 0.197558 0.205109 0.212661
0.220219 0.22777 0.235321 0.242873 0.250424 0.257983 0.265534 0.273085 0.280637 0.288189
0.295748 0.3033 0.310852 0.318404 0.325956 0.333515 0.341068 0.34862 0.356172 0.363724
0.371285 0.378837 0.386389 0.393942 0.401495 0.409055 0.416608 0.424161 0.431714 0.439267
0.446828 0.454381 0.461934 0.469487 0.477041 0.484602 0.492155 0.499709 0.507263 0.514816
0.522378 0.529931 0.537485 0.545039 0.552593 0 0.00126544 0.0025314 0.00379787 0.00506486
0.00633238 0.00822676 0.0101235 0.0120228 0.0139248 0.015829 0.0177464 0.0196687 0.021592 0.0235184
0.0254571 0.0264282 0.0273966 0.0283607 0.0293202 0.0302795 0.030757 0.0312328 0.0317066 0.0321782
0.0326942 0.0331476 0.0335989 0.0340483 0.0344957 0.0349406 0.0358509 0.0367579 0.0376609 0.0385596
0.0394495 0.0403386 0.0412262 0.0421131 0.0429998 0.043887 0.0452069 0.0465333 0.0478663 0.0492052
0.0492169 0.0499498 0.0506841 0.0514198 0.052157 0.052895 0.0547237 0.0565661 0.0584198 0.0602802
0.0621413 0.0640125 0.0658847 0.0677591 0.069636 0.071517 0.0734055 0.0752883 0.0771675 0.0790484
0.0809345 0.0840419 0.0871533 0.0902663 0.093381 0.0960218 0.0968028 0.0975839 0.0983651 0.0991465
0.0999281 0.107522 0.115117 0.122716 0.130319 0.137926 0.145559 0.153165 0.160768 0.16837
0.175972 0.183593 0.191193 0.19879 0.206388 0.213986 0.221603 0.2292 0.236796 0.244392
0.251989 0.259603 0.2672 0.274795 0.282391 0.289988 0.297601 0.305197 0.312792 0.320388
0.327984 0.335595 0.343191 0.350786 0.358381 0.365977 0.373587 0.381182 0.388777 0.396372
0.403967 0.411576 0.419171 0.426765 0.43436 0.441955 0.449563 0.457157 0.464751 0.472345
0.47994 0.487546 0.495141 0.502734 0.510328 0.517922 0.525527 0.533121 0.540714 0.548307
0.555901 0 0.00126279 0.00252625 0.00379074 0.00505642 0.00632327 0.0082333 0.0101453 0.0120611
0.0139802 0.0159047 0.0178219 0.0197521 0.0216952 0.0236509 0.025629 0.0266289 0.0276296 0.0286307
0.0296311 0.0306432 0.0308909 0.0311387 0.031386 0.0316314 0.0318213 0.0325716 0.0333093 0.034034
0.0347451 0.0354482 0.0358952 0.0363406 0.0367844 0.0372267 0.0376631 0.0381005 0.038535 0.0389671
0.0393985 0.0398275 0.0402594 0.0406913 0.0411234 0.0415559 0.0419912 0.0424266 0.0428614 0.0432967
0.0437328 0.0441712 0.045048 0.0459343 0.0468311 0.0477391 0.0486642 0.0493938 0.0501223 0.050853
0.051587 0.0524893 0.0526621 0.0528351 0.0530081 0.0531812 0.0533546 0.0543088 0.0552615 0.0562162
0.0571743 0.0581343 0.0591032 0.0600713 0.0610405 0.0620126 0.0629864 0.0649553 0.0669191 0.0688776
0.0708404 0.0727861 0.0747176 0.0766642 0.0786261 0.0805927 0.0825639 0.0865261 0.0904798 0.0944075
0.0983187 0.102234 0.110063 0.117859 0.125585 0.13325 0.140919 0.148618 0.156295 0.163967
0.171635 0.1793 0.186982 0.194646 0.202309 0.209969 0.217629 0.225304 0.232963 0.240621
0.248278 0.255935 0.263605 0.271261 0.278917 0.286571 0.294225 0.301892 0.309546 0.317199
0.324851 0.332504 0.340167 0.347819 0.35547 0.36312 0.37077 0.37843 0.38608 0.393729
0.401377 0.409025 0.416682 0.424329 0.431977 0.439623 0.447269 0.454923 0.462569 0.470214
0.477858 0.485503 0.493154 0.500798 0.508441 0.516083 0.523725 0.531373 0.539015 0.546657
0.554298 0.561939 0 0.00126441 0.00252947 0.00379518 0.00506154 0.00632914 0.00824618 0.0101656
0.0120884 0.0140174 0.0159586 0.0169287 0.0179017 0.0188778 0.0198571 0.0208396 0.0218272 0.0228229
0.0238276 0.0248413 0.0258654 0.026383 0.0269024 0.0274254 0.0279521 0.0284851 0.0287756 0.0290676
0.0293619 0.0296589 0.0297568 0.0300566 0.0303579 0.03066 0.0309619 0.031272 0.0313685 0.0314649
0.0315615 0.0316584 0.0317291 0.0317646 0.0318001 0.0318357 0.0318712 0.031905 0.0320681 0.0322312
0.0323941 0.0325568 0.0327209 0.0329 0.0330787 0.0332569 0.0334322 0.0335614 0.0336668 0.0337716
0.0338758 0.0339791 0.0340839 0.0341942 0.0343028 0.0344101 0.0345164 0.0346032 0.0346582 0.0347129
0.0347672 0.0348213 0.0348741 0.0349715 0.0350685 0.0351651 0.0352612 0.0353551 0.0354776 0.0355986
0.0357182 0.0358366 0.0360298 0.0361299 0.0362296 0.036329 0.0364282 0.0365176 0.0366029 0.0366882
0.0367736 0.0368589 0.0370123 0.0371365 0.0372606 0.0373845 0.0375081 0.03763 0.0378491 0.0380665
0.0382839 0.038502 0.0387165 0.0389348 0.0391524 0.0393703 0.0395887 0.0398068 0.0400279 0.0402472
0.0404668 0.0406866 0.0409072 0.0411276 0.0413475 0.0415676 0.0417885 0.0420119 0.0422365 0.0424594
0.0426822 0.0429056 0.0431301 0.0434622 0.0437959 0.044135 0.0444799 0.0446465 0.044809 0.0449719
0.0451351 0.0452988 0.0454635 0.0459509 0.0464305 0.0469104 0.0473859 0.0478826 0.0484 0.0489069
0.049414 0.049926 0.0504451 0.0505174 0.0505899 0.0506624 0.0507352 0.0508064 0.0518119 0.0528595
0.0539519 0.0550061 0.0560721 0.0572746 0.0584549 0.0596359 0.0608227 0.0620093 0.0624256 0.0628408
0.0632559 0.0636713 0.064142 0.0649292 0.0657087 0.0664845 0.0672624 0.068039 0.0682178 0.0683962
0.0685739 0.0687507 0.0689254 0.0699318 0.0709367 0.0719398 0.072941 0.0739381 0.0750901 0.0762621
0.0774378 0.078615 0.0797945 0.0812873 0.0827812 0.0842823 0.0857874 0.0877209 0.0884369 0.08915
0.0898601 0.0905675 0.0912715 0.0957793 0.100263 0.104672 0.10899 0.113177 0.121353 0.129464
0.137504 0.145471 0.153357 0.161117 0.168879 0.176637 0.184392 0.192145 0.199895 0.207644
0.215391 0.223136 0.230879 0.237672 0.244465 0.251257 0.258047 0.264945 0.26587 0.266795
0.26772 0.268646 0.269571 0.277305 0.28504 0.292775 0.30051 0.308245 0.315971 0.323706
0.331441 0.339176 0.346911 0.35463 0.362365 0.370099 0.377834 0.385568 0.393281 0.401015
0.408748 0.416482 0.424216 0.431923 0.439656 0.447389 0.455122 0.462855 0.470556 0.478288
0.48602 0.493752 0.501484 0.509179 0.51691 0.524641 0.532372 0.540102 0.547792 0.55552
0.563249 0.570978 0.578707 0 0.00125411 0.00250916 0.00376552 0.00502333 0.0062827 0.008214
0.010148 0.0120848 0.0140286 0.0159867 0.0169594 0.017936 0.0189166 0.0199013 0.0208901 0.0218845
0.0228897 0.0239066 0.0249353 0.0259769 0.0265055 0.0270373 0.0275759 0.0281212 0.0286754 0.0292409
0.0298141 0.0304003 0.0310005 0.0316272 0.031946 0.0322648 0.0325842 0.0329047 0.0332397 0.0333116
0.0333835 0.0334554 0.0335273 0.0335859 0.0336612 0.0337351 0.0338083 0.0338807 0.0339421 0.0341136
0.0342819 0.034447 0.0346085 0.0347754 0.0349178 0.0350575 0.0351946 0.0353283 0.0354475 0.0355679
0.0356878 0.0358072 0.0359249 0.0360369 0.0361541 0.0362682 0.0363793 0.0364899 0.0366362 0.0367433
0.0368502 0.036957 0.0370635 0.0371612 0.0373598 0.0375584 0.0377604 0.0379654 0.0384 0.0386304
0.0388608 0.0390892 0.0393157 0.0395376 0.0400007 0.0404579 0.0409115 0.0413621 0.0418079 0.0422645
0.0427067 0.0431523 0.043601 0.0440526 0.0445259 0.0449931 0.0454723 0.0459561 0.0464478 0.0472989
0.0481696 0.049054 0.0499281 0.0517889 0.0529129 0.0540384 0.0551875 0.0563564 0.0575586 0.0588175
0.0600494 0.0612653 0.0624904 0.0637202 0.0645837 0.0654356 0.0662869 0.0671333 0.0682164 0.0685571
0.0688981 0.0692392 0.0695808 0.0699228 0.0706231 0.0713238 0.0720256 0.0727284 0.0735735 0.0740869
0.0746 0.0751128 0.0756245 0.0761336 0.077375 0.0786203 0.0798732 0.0811269 0.0823802 0.0848691
0.0873619 0.0898247 0.0922453 0.0946394 0.0994733 0.104258 0.108905 0.113416 0.117774 0.121185
0.124585 0.127973 0.131349 0.135451 0.140225 0.144939 0.149593 0.15419 0.158729 0.166489
0.174259 0.182028 0.189796 0.197562 0.205307 0.213071 0.220836 0.2286 0.236364 0.244097
0.251859 0.259622 0.267384 0.275146 0.282871 0.290632 0.298393 0.306154 0.313915 0.321633
0.329393 0.337153 0.344913 0.352673 0.360384 0.368143 0.375902 0.383661 0.39142 0.399125
0.406882 0.41464 0.422397 0.430155 0.437855 0.445611 0.453367 0.461123 0.468879 0.476573
0.484327 0.492081 0.499836 0.50759 0.515279 0.523032 0.530784 0.538537 0.546289 0.553973
0.561722 0.569471 0.57722 0.584971 0 0.00125903 0.00251873 0.00377912 0.00504092 0.00630437
0.00823305 0.0101646 0.0120992 0.0140411 0.0159972 0.0169701 0.017947 0.0189281 0.0199134 0.0209029
0.0218974 0.0229024 0.0239192 0.0249477 0.0259891 0.0265181 0.02705 0.0275876 0.0281319 0.0286855
0.0292485 0.029819 0.0303991 0.0309918 0.0316139 0.03193 0.0322468 0.0325639 0.0328811 0.0332107
0.0334483 0.0336844 0.0339187 0.0341468 0.0342436 0.0343475 0.0344503 0.034552 0.0346526 0.0347559
0.0349569 0.0351511 0.0353387 0.0355204 0.0356749 0.0357535 0.0358318 0.0359093 0.0359861 0.0360631
0.0360649 0.0360667 0.0360685 0.0360703 0.0360721 0.0362158 0.0363581 0.036499 0.0366386 0.0368425
0.0369186 0.0369946 0.0370705 0.0371462 0.0372181 0.0376757 0.0381384 0.0386146 0.0390985 0.0395124
0.0399736 0.0404241 0.0408731 0.0413243 0.0417838 0.0422595 0.0427255 0.0431879 0.0436528 0.0441274
0.0446194 0.0451021 0.0455792 0.0460617 0.0465583 0.0475921 0.0486483 0.0497167 0.0508049 0.0515191
0.0516014 0.0516836 0.0517658 0.0518478 0.0519299 0.0530604 0.0542153 0.0553978 0.0566033 0.0578294
0.0591052 0.060357 0.0615887 0.0628362 0.0640774 0.0647017 0.0653147 0.0659251 0.0665341 0.0671467
0.0677733 0.0683902 0.0689975 0.0696069 0.0702217 0.0714728 0.0727336 0.0739914 0.0752443 0.0764867
0.0771971 0.077901 0.0786062 0.079313 0.0800977 0.0805643 0.0810311 0.0814984 0.0819667 0.0824228
0.0824885 0.0825542 0.0826199 0.0826856 0.0827512 0.085261 0.0877557 0.0902357 0.0926569 0.0950492
0.0998122 0.104526 0.109129 0.113622 0.117973 0.124632 0.131207 0.137673 0.144032 0.15927
0.161729 0.164187 0.166646 0.169104 0.171594 0.17688 0.182165 0.187449 0.192733 0.198017
0.205756 0.213501 0.221246 0.22899 0.236734 0.244462 0.252205 0.259948 0.26769 0.275433
0.283153 0.290895 0.298637 0.306379 0.314121 0.321834 0.329575 0.337316 0.345057 0.352799
0.360506 0.368246 0.375986 0.383727 0.391467 0.399168 0.406907 0.414647 0.422386 0.430126
0.437821 0.445559 0.453297 0.461036 0.468774 0.476464 0.484201 0.491938 0.499675 0.507412
0.515097 0.522832 0.530568 0.538303 0.546038 0.553718 0.56145 0.569183 0.576916 0.584649
0 0.00127992 0.00256047 0.00384228 0.00512557 0.00641035 0.00831677 0.0102257 0.0121374 0.0140556
0.0159858 0.0169578 0.0179329 0.0189114 0.0198933 0.0208787 0.0218728 0.022876 0.023889 0.024912
0.0259471 0.0263894 0.0268332 0.0272804 0.027731 0.0278547 0.0280039 0.0281534 0.0283029 0.0284525
0.0286025 0.0291458 0.0296935 0.0302483 0.030812 0.0313965 0.031471 0.0315455 0.03162 0.0316945
0.0317592 0.031977 0.0321946 0.0324122 0.0326295 0.0328504 0.0329304 0.0330103 0.0330901 0.0331697
0.0332386 0.0334495 0.0336595 0.0338684 0.0340741 0.0342861 0.0343482 0.0344099 0.0344712 0.034532
0.0345849 0.0345906 0.0345962 0.0346019 0.0346076 0.0346132 0.0348283 0.0350389 0.0352451 0.0354438
0.035634 0.0356559 0.0356777 0.0356995 0.0357213 0.0357435 0.035845 0.0359456 0.0360451 0.0361459
0.0362899 0.0363838 0.036477 0.0365696 0.0366613 0.0367506 0.0368546 0.0369578 0.0370606 0.0371636
0.0373119 0.0374108 0.0375095 0.0376083 0.0377078 0.037805 0.0380168 0.0382268 0.0384361 0.0386448
0.0388568 0.0390767 0.039292 0.0395031 0.0397142 0.039928 0.040144 0.0403584 0.0405718 0.0407858
0.0410022 0.041223 0.0414403 0.0416565 0.041873 0.0420904 0.0423091 0.0425263 0.0427434 0.0429609
0.0431795 0.0436242 0.0440693 0.0445176 0.0449692 0.045429 0.0459072 0.0463736 0.0468321 0.0472935
0.0477687 0.0482512 0.0487319 0.0492125 0.049697 0.0501894 0.0512058 0.0522279 0.0532623 0.0543501
0.0554549 0.0558082 0.0561619 0.0565167 0.0568729 0.0572485 0.0580504 0.0588517 0.0596526 0.0604572
0.06127 0.0624688 0.063644 0.0648258 0.0660225 0.0672136 0.068439 0.0696405 0.0708199 0.0719928
0.0731579 0.0736064 0.0740541 0.0745023 0.0749508 0.0753906 0.075692 0.0759935 0.0762952 0.076597
0.0769063 0.0773285 0.0777511 0.078174 0.0785972 0.0790207 0.0813642 0.0837096 0.0860541 0.0883686
0.0906565 0.0951647 0.0997255 0.104193 0.108518 0.112736 0.121048 0.129329 0.137548 0.145595
0.153471 0.161213 0.168955 0.176693 0.184427 0.192159 0.199887 0.207615 0.215341 0.223065
0.230788 0.237019 0.243251 0.249481 0.255711 0.26194 0.263427 0.264915 0.266402 0.267889
0.269377 0.277091 0.284806 0.292521 0.300237 0.307952 0.315659 0.323374 0.33109 0.338805
0.34652 0.354221 0.361936 0.369651 0.377366 0.385081 0.392776 0.40049 0.408204 0.415919
0.423633 0.431323 0.439036 0.44675 0.454464 0.462178 0.469862 0.477575 0.485287 0.493
0.500713 0.508393 0.516105 0.523816 0.531528 0.53924 0.546914 0.554624 0.562334 0.570044
0.577754 0 0.00127752 0.00255576 0.00383511 0.00511574 0.00639765 0.00829922 0.0102027 0.0121091
0.0140203 0.0159396 0.0169037 0.0178697 0.0188377 0.0198079 0.0207804 0.0217541 0.0227329 0.0237169
0.0247055 0.0256979 0.0266886 0.0276856 0.0286909 0.0296915 0.0306999 0.0307752 0.0308506 0.0309259
0.0310011 0.0310705 0.0319927 0.0328952 0.0337773 0.0346382 0.0354966 0.0359445 0.03639 0.0368336
0.037276 0.037713 0.0381515 0.0385875 0.0390226 0.0394571 0.0398858 0.0403188 0.0407519 0.0411854
0.0416191 0.0420535 0.0424896 0.0429247 0.0433605 0.0437974 0.0442361 0.0451141 0.0460006 0.0468938
0.0477944 0.0487201 0.049667 0.0506065 0.0515394 0.0524793 0.0534285 0.0541494 0.0548755 0.0556038
0.0563338 0.0574483 0.0576151 0.057782 0.0579491 0.0581163 0.0582836 0.0592671 0.06025 0.0612333
0.0622164 0.0631985 0.0651981 0.0671846 0.0691607 0.0711462 0.073129 0.0750871 0.0770713 0.0790702
0.0810732 0.083078 0.0870896 0.0911179 0.0951145 0.0990665 0.103013 0.105829 0.10865 0.11148
0.114302 0.117616 0.122625 0.127606 0.132559 0.137484 0.142383 0.150093 0.157806 0.165516
0.173223 0.180929 0.188622 0.196323 0.204022 0.21172 0.219417 0.227103 0.234797 0.242489
0.25018 0.25787 0.265553 0.27324 0.280927 0.288613 0.296298 0.303977 0.311659 0.319341
0.327023 0.334703 0.342379 0.350057 0.357735 0.365412 0.373088 0.38076 0.388435 0.396108
0.403781 0.411454 0.419123 0.426794 0.434464 0.442133 0.449802 0.457468 0.465135 0.472801
0.480467 0.488133 0.495796 0.50346 0.511123 0.518785 0.526447 0.534107 0.541767 0.549427
0.557087 0.564746 0 0.00127409 0.00254879 0.00382395 0.00510033 0.00637794 0.00827384 0.0101718
0.0120722 0.0139755 0.0158829 0.0177922 0.0197067 0.0216261 0.0235502 0.0254822 0.0264531 0.0274209
0.0283839 0.0293418 0.0299616 0.0309795 0.0319897 0.0329895 0.0339791 0.0349569 0.0358658 0.0367714
0.0376728 0.0385713 0.0394608 0.0403514 0.0412404 0.0421284 0.0430154 0.0439016 0.0456788 0.0474732
0.0492821 0.0511008 0.0529359 0.0537905 0.0546464 0.0555044 0.0563643 0.0576911 0.0585922 0.0594953
0.0604001 0.0613068 0.062215 0.0640906 0.065969 0.0678501 0.0697339 0.0716197 0.0735151 0.0754027
0.0772912 0.0791812 0.0810722 0.0848679 0.0886628 0.0924621 0.0962659 0.100084 0.107783 0.115484
0.123141 0.130761 0.138395 0.146044 0.153691 0.161336 0.168979 0.176621 0.184267 0.19191
0.199551 0.207191 0.214829 0.222471 0.230109 0.237746 0.245383 0.253018 0.260657 0.268292
0.275927 0.283561 0.291194 0.29883 0.306463 0.314096 0.321727 0.329358 0.336992 0.344623
0.352253 0.359883 0.367511 0.375143 0.382772 0.3904 0.398027 0.405654 0.413283 0.42091
0.428536 0.436162 0.443787 0.451413 0.459038 0.466663 0.474286 0.481909 0.489534 0.497157
0.50478 0.512401 0.520022 0.527644 0.535265 0.542885 0.550505 0.558125 0 0.00127141
0.00254321 0.00381553 0.00508845 0.00636197 0.0101414 0.0139323 0.0177224 0.021509 0.0252996 0.0257908
0.0262809 0.02677 0.0272583 0.0276882 0.0290773 0.0304612 0.03184 0.0332136 0.0345846 0.0364257
0.0382573 0.0400721 0.0418827 0.0436883 0.0454995 0.0473081 0.0491181 0.0509368 0.0527668 0.054603
0.0564407 0.0582812 0.0601246 0.0619706 0.0656728 0.0693888 0.0731208 0.0768677 0.0806183 0.0843886
0.0881571 0.0919258 0.0956965 0.0994697 0.106999 0.114527 0.12206 0.129608 0.137172 0.14475