# vtk DataFile Version 2.0
tracks
ASCII
DATASET POLYDATA
POINTS 2590 float
-1.001 -0.05 0.0011 -0.900789 -0.0500215 0.00109731 -0.800577 -0.050043 0.00109463 -0.700366 -0.0500645
0.00109196 -0.600155 -0.0500858 0.0010893 -0.499943 -0.0501072 0.00108664 -0.424945 -0.0501111 0.00107894
-0.349947 -0.050152 0.00106881 -0.274949 -0.0501925 0.00105878 -0.19995 -0.0502326 0.00104885 -0.124952
-0.0502723 0.001039 -0.0499538 -0.0502817 0.00103924 0.0250446 -0.0502905 0.00104798 0.100043 -0.0502994
0.00105679 0.175041 -0.0503084 0.00106568 0.25004 -0.0503174 0.00107465 0.400037 -0.0503113 0.00109074
0.550035 -0.0503095 0.00110496 0.700032 -0.0503076 0.00111937 0.85003 -0.0503058 0.00113396 1.00003
-0.0503038 0.00114874 1.15003 -0.0503145 0.00115594 1.30002 -0.0503202 0.00116042 1.45002 -0.0503259
0.00116491 1.60002 -0.0503316 0.00116942 1.75002 -0.0503373 0.00117394 1.90002 -0.0503458 0.00117681
2.05002 -0.0503523 0.00117874 2.20001 -0.0503588 0.00118067 2.35001 -0.0503653 0.0011826 2.50001
-0.0503717 0.00118454 2.65001 -0.0503797 0.00118559 2.80001 -0.0503877 0.00118628 2.95001 -0.0503958
0.00118697 3.10001 -0.0504039 0.00118765 3.25001 -0.0504119 0.00118834 3.40001 -0.0504198 0.00118862
3.55001 -0.0504286 0.0011892 3.70001 -0.0504374 0.00118978 3.85001 -0.0504461 0.00119035 4.00001
-0.0504549 0.00119093 4.15 -0.0504627 0.00119101 4.3 -0.0504722 0.00119168 4.45 -0.0504818
0.00119235 4.6 -0.0504914 0.00119302 4.75 -0.050501 0.00119369 4.9 -0.0505086 0.00119369
5.05 -0.0505186 0.00119452 5.2 -0.0505287 0.00119535 5.35 -0.0505388 0.00119619 5.5
-0.0505488 0.00119702 5.65 -0.0505564 0.00119698 5.8 -0.0505667 0.00119797 5.95 -0.0505771
0.00119896 6.1 -0.0505875 0.00119996 6.25 -0.0505979 0.00120095 6.4 -0.0506053 0.00120088
6.55 -0.0506159 0.00120201 6.7 -0.0506265 0.00120314 6.85 -0.0506371 0.00120427 7
-0.0506477 0.0012054 7.15 -0.0506551 0.00120531 7.3 -0.0506658 0.00120655 7.45 -0.0506766
0.00120779 7.6 -0.0506873 0.00120903 7.75 -0.0506981 0.00121027 7.9 -0.0507054 0.00121016
8.05 -0.0507162 0.00121149 8.2 -0.0507271 0.00121282 8.35 -0.0507379 0.00121415 8.5
-0.0507488 0.00121548 8.65 -0.0507561 0.00121537 8.8 -0.050767 0.00121677 8.95 -0.0507779
0.00121818 9.1 -0.0507889 0.00121958 9.25 -0.0507998 0.00122099 9.4 -0.050807 0.00122087
9.55 -0.050864 0.00122299 9.7 -0.0509723 0.00122586 9.85 -0.0511319 0.00122947 10
-0.0513427 0.00123382 -1.001 -0.05 0.0537316 -0.900807 -0.0501058 0.0535766 -0.800614 -0.0502119
0.0533944 -0.700421 -0.0503413 0.0531784 -0.600229 -0.0505016 0.0529268 -0.500035 -0.0506926 0.0526397
-0.425004 -0.0509402 0.052417 -0.349973 -0.0512771 0.0521273 -0.274943 -0.0516612 0.0518586 -0.199912
-0.052079 0.0516322 -0.124879 -0.0524812 0.0514883 -0.0498864 -0.0527473 0.0515251 0.0251064 -0.0529673
0.0516908 0.100099 -0.0531825 0.0519251 0.175092 -0.0534072 0.0522076 0.250087 -0.053627 0.0525251
0.400077 -0.054013 0.0531609 0.550067 -0.0543968 0.0536761 0.700057 -0.0547393 0.0541426 0.850047
-0.0550406 0.0545599 1.00003 -0.0553086 0.0549276 1.14681 -0.0556767 0.055206 1.29359 -0.0560133
0.0554657 1.44037 -0.0563471 0.0556917 1.58715 -0.0566784 0.0558841 1.70451 -0.0569412 0.0560108
1.71361 -0.0569624 0.0560193 1.72271 -0.0569836 0.0560277 1.73182 -0.057005 0.0560361 1.74092
-0.0570264 0.0560443 1.75002 -0.057048 0.0560525 1.90002 -0.0574049 0.0561858 2.05002 -0.0577574
0.0563018 2.20001 -0.0581061 0.0564002 2.35001 -0.058451 0.0564809 2.50001 -0.058792 0.0565439
2.65001 -0.0591382 0.0565959 2.80001 -0.059484 0.0566411 2.95001 -0.0598289 0.0566786 3.10001
-0.0601731 0.0567084 3.25001 -0.0605164 0.0567306 3.40001 -0.0608608 0.0567477 3.55001 -0.0612064
0.056764 3.70001 -0.0615505 0.0567783 3.85001 -0.0618932 0.0567906 4.00001 -0.0622344 0.0568009
4.15 -0.0625734 0.0568087 4.3 -0.0629162 0.0568176 4.45 -0.0632575 0.0568257 4.6
-0.0635973 0.056833 4.75 -0.0639357 0.0568396 4.9 -0.0642692 0.0568439 5.05 -0.0646081
0.0568502 5.2 -0.0649456 0.056856 5.35 -0.0652817 0.0568615 5.5 -0.0656165 0.0568666
5.65 -0.0659446 0.0568692 5.8 -0.0662791 0.0568742 5.95 -0.0666123 0.0568791 6.1
-0.0669443 0.0568837 6.25 -0.0672751 0.056888 6.4 -0.0675979 0.0568894 6.55 -0.0679279
0.0568938 6.7 -0.0682567 0.0568981 6.85 -0.0685843 0.0569022 7 -0.0689107 0.0569061
7.15 -0.0692284 0.0569068 7.3 -0.0695538 0.0569108 7.45 -0.069878 0.0569147 7.6
-0.070201 0.0569185 7.75 -0.0705228 0.0569221 7.9 -0.0708354 0.0569223 8.05 -0.0711561
0.056926 8.2 -0.0714756 0.0569298 8.35 -0.071794 0.0569335 8.5 -0.0721112 0.0569373
8.65 -0.0724188 0.0569373 8.8 -0.0727347 0.0569411 8.95 -0.0730494 0.0569448 9.1
-0.073363 0.0569483 9.25 -0.0736754 0.0569518 9.4 -0.0739778 0.0569514 9.55 -0.0742892
0.056955 9.7 -0.0746002 0.0569585 9.85 -0.0749106 0.056962 10 -0.0752205 0.0569654
-1.001 -0.05 0.106363 -0.900818 -0.0500777 0.106138 -0.800636 -0.0501532 0.105866 -0.700455
-0.0502553 0.105547 -0.600274 -0.0504273 0.105005 -0.50009 -0.050669 0.104243 -0.424996 -0.0509555
0.103658 -0.349901 -0.0513032 0.103052 -0.274807 -0.0516552 0.102515 -0.199711 -0.0519527 0.102085
-0.124607 -0.0522945 0.101983 -0.0496047 -0.0525421 0.102096 0.0253974 -0.0527349 0.102326 0.100399
-0.0529148 0.102638 0.175401 -0.0531152 0.103035 0.250411 -0.0533357 0.103517 0.400346 -0.0537419
0.104517 0.550283 -0.0541468 0.105389 0.70022 -0.0545128 0.106174 0.850157 -0.0548483 0.106792
1.00009 -0.0551528 0.107243 1.15007 -0.055593 0.107508 1.30006 -0.055889 0.107804 1.45005
-0.0561342 0.108081 1.60003 -0.0563734 0.108324 1.75002 -0.0566067 0.108536 1.90002 -0.056914
0.10868 2.05002 -0.0571578 0.108836 2.20001 -0.0573958 0.108975 2.35001 -0.0576313 0.109097
2.50001 -0.0578643 0.109202 2.65001 -0.0581538 0.109271 2.80001 -0.0584011 0.109339 2.95001
-0.0586473 0.109399 3.10001 -0.0588928 0.109452 3.25001 -0.0591375 0.109497 3.40001 -0.0594253
0.109531 3.55001 -0.0596766 0.109565 3.70001 -0.059926 0.109596 3.85001 -0.0601738 0.109625
4 -0.0604201 0.109653 4.15 -0.0607018 0.109679 4.3 -0.0609531 0.1097 4.45
-0.0612026 0.10972 4.6 -0.0614505 0.10974 4.75 -0.0616969 0.109759 4.9 -0.0619722
0.109782 5.05 -0.0622216 0.109797 5.2 -0.0624693 0.109812 5.35 -0.0627156 0.109826
5.5 -0.0629605 0.10984 5.65 -0.0632294 0.109861 5.8 -0.0634763 0.109872 5.95
-0.0637216 0.109883 6.1 -0.0639657 0.109893 6.25 -0.0642086 0.109903 6.4 -0.0644715
0.109923 6.55 -0.0647155 0.109931 6.7 -0.0649582 0.109939 6.85 -0.0651996 0.109946
7 -0.0654398 0.109953 7.15 -0.0656969 0.109972 7.3 -0.0659378 0.109978 7.45
-0.0661774 0.109983 7.6 -0.0664158 0.109988 7.75 -0.0666531 0.109993 7.9 -0.0669045
0.110011 8.05 -0.0671421 0.110015 8.2 -0.0673785 0.110019 8.35 -0.0676137 0.110022
8.5 -0.0678478 0.110026 8.65 -0.0680938 0.110043 8.8 -0.0683279 0.110046 8.95
-0.0685607 0.110048 9.1 -0.0687924 0.110051 9.25 -0.0690229 0.110053 9.4 -0.0692632
0.110069 9.55 -0.0694941 0.110071 9.7 -0.0697243 0.110072 9.85 -0.0699541 0.110072
10 -0.0701833 0.110073 -1.001 -0.05 0.158995 -0.900796 -0.0500882 0.15877 -0.800593
-0.0501923 0.158425 -0.700392 -0.0503534 0.157688 -0.600196 -0.0505843 0.156477 -0.499992 -0.0508768
0.154637 -0.42472 -0.0514833 0.153033 -0.349436 -0.0519498 0.152112 -0.274149 -0.0523453 0.151549
-0.198859 -0.052739 0.151255 -0.123699 -0.0530551 0.151307 -0.0487804 -0.0531772 0.15147 0.0261372
-0.0532547 0.151951 0.101053 -0.0533935 0.152656 0.175968 -0.0535592 0.153454 0.250944 -0.0537123
0.154282 0.400783 -0.0539226 0.155704 0.550624 -0.0544278 0.156882 0.700468 -0.0548985 0.157636
0.850313 -0.0552953 0.158235 1.00014 -0.0556612 0.158666 1.15012 -0.0561633 0.158912 1.30009
-0.056521 0.15919 1.45007 -0.0567855 0.159458 1.60005 -0.0569732 0.159713 1.75002 -0.0571551
0.159935 1.90002 -0.057412 0.160091 2.05002 -0.057605 0.160257 2.20002 -0.0577858 0.160409
2.35001 -0.0579578 0.160546 2.50001 -0.0581275 0.160665 2.65001 -0.058354 0.160749 2.80001
-0.0585384 0.160831 2.95001 -0.0587205 0.160907 3.10001 -0.0589009 0.160975 3.25001 -0.0590807
0.161036 3.40001 -0.0593037 0.161087 3.55001 -0.0594903 0.161135 3.70001 -0.059674 0.161183
3.85001 -0.0598556 0.161229 4 -0.0600356 0.161273 4.15 -0.0602509 0.161316 4.3
-0.060436 0.161354 4.45 -0.0606186 0.161391 4.6 -0.0607989 0.161428 4.75 -0.0609778
0.161464 4.9 -0.0611854 0.161504 5.05 -0.0613673 0.161537 5.2 -0.061547 0.161569
5.35 -0.0617248 0.1616 5.5 -0.0619012 0.161631 5.65 -0.0621013 0.16167 5.8
-0.0622797 0.161698 5.95 -0.0624561 0.161726 6.1 -0.0626309 0.161754 6.25 -0.0628044
0.161781 6.4 -0.0629976 0.161818 6.55 -0.0631723 0.161843 6.7 -0.0633453 0.161868
6.85 -0.0635166 0.161893 7 -0.0636868 0.161917 7.15 -0.0638735 0.161953 7.3
-0.0640444 0.161976 7.45 -0.0642136 0.161998 7.6 -0.0643814 0.162021 7.75 -0.0645481
0.162043 7.9 -0.0647285 0.162077 8.05 -0.0648955 0.162098 8.2 -0.0650611 0.162119
8.35 -0.0652253 0.16214 8.5 -0.0653884 0.16216 8.65 -0.0655629 0.162194 8.8
-0.0657259 0.162214 8.95 -0.0658874 0.162234 9.1 -0.0660475 0.162253 9.25 -0.0662065
0.162272 9.4 -0.0663749 0.162305 9.55 -0.0665341 0.162323 9.7 -0.0666925 0.16234
9.85 -0.0668502 0.162357 10 -0.0670075 0.162374 -1.001 -0.05 0.211626 -0.947632
-0.0500804 0.211469 -0.894265 -0.0501654 0.211279 -0.840898 -0.0502549 0.211055 -0.787531 -0.050389
0.210764 -0.724313 -0.0506326 0.210286 -0.679436 -0.0509101 0.209635 -0.634564 -0.0512448 0.208756
-0.589694 -0.0515833 0.20774 -0.544827 -0.0519268 0.206586 -0.499928 -0.0522766 0.205293 -0.469449
-0.0525702 0.20424 -0.438971 -0.0528739 0.203124 -0.408489 -0.053162 0.202134 -0.378004 -0.0534358
0.201266 -0.329855 -0.0538529 0.200029 -0.288844 -0.0541922 0.19912 -0.247829 -0.0545312 0.198427
-0.20681 -0.0548744 0.198047 -0.165788 -0.0551822 0.197956 -0.124884 -0.0554153 0.198128 -0.0496123
-0.05572 0.198838 0.0256572 -0.0558559 0.199787 0.100922 -0.0559641 0.201068 0.176185 -0.0561059
0.202429 0.251487 -0.056241 0.203582 0.25198 -0.0562417 0.203589 0.252474 -0.0562425 0.203595
0.252967 -0.0562432 0.203602 0.25346 -0.056244 0.203608 0.253957 -0.0562447 0.203615 0.32822
-0.0563573 0.204585 0.402484 -0.0564718 0.20543 0.47675 -0.0565884 0.206148 0.551016 -0.0567337
[...]
POINT_DATA 2590
FIELD attributes 4
age 1 2590 float
0 0.00501121 0.0100224 0.0150336 0.0200448 0.025056 0.0288056 0.0325533 0.036301 0.0400488 0.0437965
0.0475449 0.0512905 0.0550361 0.0587817 0.0625272 0.070024 0.0775229 0.0850219 0.0925208 0.10002
0.10752 0.115019 0.122519 0.130019 0.137519 0.145019 0.152519 0.160019 0.167518 0.175018
0.182518 0.190018 0.197517 0.205017 0.212517 0.220017 0.227516 0.235016 0.242516 0.250015
0.257515 0.265015 0.272515 0.280015 0.287514 0.295014 0.302514 0.310014 0.317513 0.325013
0.332513 0.340013 0.347512 0.355012 0.362512 0.370012 0.377512 0.385011 0.392511 0.400011
0.407511 0.415011 0.42251 0.43001 0.43751 0.44501 0.45251 0.460009 0.467509 0.475009
0.482509 0.490009 0.497508 0.505008 0.512508 0.520008 0.527507 0.535005 0.542503 0.55
0 0.00502603 0.0100533 0.0150747 0.0200879 0.025093 0.0288321 0.0325652 0.0362917 0.0400113
0.0437247 0.0474309 0.0511301 0.0548275 0.0585248 0.0622239 0.0696346 0.0770707 0.0845214 0.091987
0.0994672 0.1068 0.114135 0.12147 0.128807 0.134674 0.135129 0.135584 0.13604 0.136495
0.13695 0.14445 0.15195 0.15945 0.166948 0.174447 0.181945 0.189442 0.196939 0.204437
0.211933 0.219431 0.226928 0.234425 0.241922 0.249419 0.256917 0.264414 0.271912 0.279409
0.286907 0.294406 0.301903 0.309402 0.3169 0.324398 0.331897 0.339395 0.346894 0.354392
0.361891 0.369391 0.376889 0.384388 0.391887 0.399387 0.406887 0.414386 0.421885 0.429385
0.436885 0.444385 0.451885 0.459385 0.466885 0.474386 0.481887 0.489387 0.496888 0.504388
0.511889 0.519391 0.526892 0.534392 0.541893 0.549394 0 0.00502802 0.0100578 0.0150819
0.0200994 0.0251105 0.0288575 0.0325975 0.0363282 0.0400541 0.0437702 0.0474749 0.0511738 0.0548716
0.0585685 0.062265 0.0696633 0.0770887 0.0845322 0.0919978 0.0994851 0.106988 0.114492 0.122
0.129508 0.137018 0.144533 0.152042 0.15955 0.167058 0.174565 0.182077 0.189583 0.197088
0.204594 0.212099 0.21961 0.227115 0.23462 0.242125 0.249631 0.257143 0.264648 0.272154
0.279659 0.287165 0.294677 0.302183 0.309689 0.317195 0.324701 0.332214 0.33972 0.347226
0.354733 0.362239 0.369753 0.377259 0.384766 0.392272 0.399779 0.407293 0.4148 0.422307
0.429814 0.437321 0.444836 0.452343 0.45985 0.467358 0.474865 0.482381 0.489888 0.497396
0.504904 0.512412 0.519927 0.527436 0.534944 0.542452 0.54996 0 0.00503012 0.0100663
0.0150996 0.020127 0.0251496 0.0289153 0.0326692 0.0364111 0.0401427 0.0438575 0.0475524 0.0512419
0.0549304 0.0586181 0.0623093 0.0696964 0.0771198 0.0845738 0.0920443 0.099536 0.107048 0.114561
0.12208 0.129602 0.137125 0.144655 0.152178 0.159701 0.167224 0.174746 0.182273 0.189794
0.197315 0.204835 0.212355 0.219882 0.227402 0.234922 0.242443 0.249963 0.25749 0.265011
0.272531 0.280052 0.287573 0.295101 0.302622 0.310143 0.317664 0.325185 0.332713 0.340235
0.347756 0.355278 0.362799 0.370328 0.37785 0.385372 0.392893 0.400415 0.407945 0.415467
0.422989 0.430511 0.438034 0.445563 0.453086 0.460609 0.468131 0.475654 0.483184 0.490707
0.49823 0.505753 0.513276 0.520807 0.528331 0.535854 0.543377 0.550901 0 0.00268271
0.00536711 0.00805319 0.0107386 0.0139176 0.0161729 0.0184278 0.0206819 0.0229352 0.0251894 0.0267173
0.0282432 0.0297661 0.031286 0.033681 0.0357133 0.0377398 0.0397608 0.0417762 0.0437803 0.047459
0.0511391 0.0548204 0.0585083 0.0622091 0.0622333 0.0622576 0.0622819 0.0623062 0.0623307 0.0659891
0.0696574 0.0733356 0.0770241 0.0807225 0.0813124 0.0819023 0.0824922 0.0830823 0.0836579 0.0868172
0.0899791 0.0931436 0.0963107 0.0994798 0.107 0.114522 0.122049 0.129581 0.137117 0.144661
0.152197 0.159734 0.16727 0.174807 0.18235 0.189885 0.19742 0.204955 0.21249 0.220031
0.227566 0.2351 0.242635 0.25017 0.257712 0.265247 0.272782 0.280317 0.287853 0.295395
0.302931 0.310466 0.318002 0.325538 0.333081 0.340616 0.348152 0.355689 0.363225 0.370768
0.378304 0.385841 0.393377 0.400914 0.408458 0.415994 0.423531 0.431068 0.438605 0.44615
0.453687 0.461224 0.468761 0.476299 0.483843 0.491381 0.498919 0.506456 0.513994 0.521539
0.529077 0.536615 0.544154 0.551692 0 0.00126444 0.00252926 0.00379477 0.00506107 0.0063282
0.0101157 0.0139116 0.0177191 0.0215331 0.0253297 0.026912 0.0284841 0.0300494 0.0316074 0.0329953
0.0333227 0.0336497 0.0339763 0.0343028 0.0346292 0.0364574 0.0382785 0.0400907 0.0418977 0.0436952
0.0454957 0.0473008 0.0491179 0.0509399 0.0527661 0.0529202 0.0530742 0.0532283 0.0533824 0.0535441
0.0552199 0.0568984 0.0585796 0.0602638 0.0619505 0.0656463 0.0693591 0.0730899 0.0768314 0.0805819
0.0843455 0.0881082 0.0918716 0.0956377 0.0994062 0.106942 0.114479 0.122021 0.129567 0.137117
0.144683 0.152235 0.159788 0.167341 0.174893 0.182453 0.190005 0.197556 0.205107 0.212658
0.220217 0.227767 0.235318 0.242869 0.25042 0.257979 0.26553 0.273081 0.280632 0.288183
0.295743 0.303294 0.310845 0.318397 0.325949 0.333508 0.34106 0.348612 0.356164 0.363716
0.371276 0.378828 0.38638 0.393933 0.401485 0.409045 0.416598 0.42415 0.431703 0.439256
0.446816 0.454369 0.461922 0.469475 0.477028 0.484589 0.492142 0.499696 0.507249 0.514802
0.522364 0.529917 0.53747 0.545024 0.552577 0 0.00126545 0.0025314 0.00379788 0.00506487
0.0063324 0.00822678 0.0101235 0.0120228 0.0139248 0.015829 0.0177464 0.0196688 0.0215921 0.0235186
0.0254573 0.0264285 0.0273969 0.028361 0.0293206 0.0302801 0.0307554 0.0312291 0.0317007 0.0321702
0.0326825 0.0331385 0.0335925 0.0340444 0.0344944 0.0349419 0.0358523 0.0367595 0.0376626 0.0385614
0.0394513 0.0403405 0.0412282 0.0421152 0.0430018 0.043889 0.0452477 0.0466132 0.0479859 0.0493342
0.0528837 0.0547127 0.0565554 0.0584094 0.0602702 0.0621317 0.064003 0.0658756 0.0677503 0.0696277
0.071509 0.0733977 0.0752809 0.0771603 0.0790416 0.0809279 0.0840448 0.0871658 0.0902885 0.0934127
0.0960569 0.0968295 0.0976022 0.0983751 0.0991481 0.0999213 0.107514 0.115109 0.122708 0.130311
0.137918 0.145549 0.153156 0.160758 0.16836 0.175962 0.183583 0.191182 0.198779 0.206377
0.213974 0.221591 0.229187 0.236783 0.244379 0.251975 0.25959 0.267186 0.274781 0.282377
0.289973 0.297586 0.305182 0.312777 0.320372 0.327967 0.335579 0.343174 0.350769 0.358364
0.365959 0.373569 0.381164 0.388759 0.396353 0.403948 0.411557 0.419152 0.426746 0.43434
0.441934 0.449542 0.457136 0.46473 0.472324 0.479918 0.487525 0.495119 0.502712 0.510305
0.517899 0.525504 0.533098 0.54069 0.548284 0.555877 0 0.00126279 0.00252624 0.00379074
0.00505641 0.00632326 0.00823328 0.0101453 0.0120611 0.0139802 0.0159046 0.0178219 0.0197521 0.0216952
0.023651 0.0256292 0.0266291 0.0276298 0.028631 0.0296314 0.0306437 0.030891 0.0311383 0.0313853
0.0316303 0.0318201 0.032571 0.0333095 0.034035 0.0347469 0.0354508 0.035898 0.0363435 0.0367873
0.0372298 0.0376662 0.0381037 0.0385382 0.0389704 0.0394018 0.0398307 0.0402625 0.0406944 0.0411263
0.0415588 0.0419939 0.0424293 0.042864 0.0432991 0.043735 0.0441732 0.0450499 0.045936 0.0468323
0.04774 0.0486651 0.0494238 0.0501814 0.0509413 0.0517047 0.0526471 0.0527887 0.0529303 0.053072
0.0532137 0.0533556 0.0543093 0.0552619 0.0562165 0.0571733 0.0581324 0.0591007 0.060068 0.0610364
0.0620078 0.0629809 0.0649487 0.0669112 0.0688683 0.0708297 0.0727747 0.0747057 0.0766515 0.0786121
0.0805768 0.0825462 0.0865055 0.0904562 0.0943811 0.0982911 0.102204 0.11003 0.117823 0.125546
0.13321 0.140879 0.148576 0.156252 0.163924 0.17159 0.179256 0.186936 0.1946 0.202261
0.209921 0.21758 0.225254 0.232912 0.24057 0.248226 0.255882 0.263551 0.271207 0.278861
0.286515 0.294168 0.301834 0.309487 0.31714 0.324791 0.332443 0.340105 0.347756 0.355407
0.363056 0.370706 0.378365 0.386014 0.393662 0.40131 0.408957 0.416613 0.42426 0.431907
0.439552 0.447198 0.454851 0.462496 0.470141 0.477784 0.485428 0.493079 0.500722 0.508364
0.516006 0.523648 0.531295 0.538936 0.546577 0.554218 0.561858 0 0.00126441 0.00252947
0.00379518 0.00506154 0.00632914 0.00824618 0.0101656 0.0120884 0.0140174 0.0159586 0.0169287 0.0179017
0.0188778 0.0198571 0.0208396 0.0218272 0.0228229 0.0238276 0.0248414 0.0258655 0.0263831 0.0269025
0.0274255 0.0279522 0.0284852 0.0287755 0.0290671 0.0293611 0.0296577 0.0297556 0.0300557 0.0303573
0.0306596 0.0309618 0.0312722 0.0313692 0.0314661 0.0315632 0.0316605 0.0317315 0.0317663 0.0318011
0.0318359 0.0318707 0.0319039 0.0320673 0.0322306 0.0323938 0.0325568 0.0327211 0.0328998 0.0330782
0.033256 0.033431 0.03356 0.0336657 0.0337708 0.0338753 0.0339788 0.0340839 0.0341945 0.0343036
0.0344113 0.0345179 0.0346051 0.0346592 0.034713 0.0347666 0.0348198 0.0348718 0.0349696 0.0350669
0.0351639 0.0352603 0.0353547 0.0354764 0.0355967 0.0357155 0.0358333 0.0360248 0.0361258 0.0362264
0.0363266 0.0364267 0.0365167 0.0366054 0.0366942 0.0367829 0.0368716 0.0370362 0.0371551 0.0372738
0.0373923 0.0375106 0.0376275 0.0378461 0.0380632 0.0382803 0.0384979 0.038712 0.0389297 0.0391468
0.0393642 0.039582 0.0397997 0.0400202 0.040239 0.0404582 0.0406776 0.0408977 0.0411176 0.0413371
0.0415569 0.0417775 0.0420005 0.0422247 0.0424471 0.0426697 0.0428929 0.0431171 0.0434576 0.0437998
0.0441478 0.0445017 0.0446624 0.0448186 0.0449751 0.0451319 0.045289 0.0454473 0.0459341 0.0464137
0.0468936 0.047369 0.0478651 0.0483817 0.048888 0.0493955 0.0499078 0.0504273 0.0504996 0.050572
0.0506446 0.0507173 0.0507884 0.0517939 0.0528423 0.0539357 0.0549892 0.0560553 0.0572585 0.0584394
0.0596223 0.0608113 0.0620001 0.0623991 0.0627971 0.063195 0.0635932 0.0640412 0.0648483 0.0656472
0.0664441 0.0672433 0.0680412 0.0681234 0.0682055 0.0682874 0.0683692 0.0684505 0.0695639 0.0706665
0.0717672 0.0728659 0.0739585 0.0751112 0.0762856 0.0774637 0.0786432 0.0798255 0.0812377 0.082651
0.0840708 0.0854958 0.0872792 0.0880935 0.088904 0.0897108 0.090514 0.0913129 0.0958241 0.10031
0.104723 0.109044 0.113234 0.12141 0.129524 0.137565 0.145535 0.153421 0.161182 0.168942
0.1767 0.184456 0.192208 0.199957 0.207706 0.215453 0.223198 0.23094 0.237062 0.243184
0.249304 0.255424 0.26163 0.26323 0.26483 0.26643 0.26803 0.26963 0.277363 0.285098
0.292834 0.300569 0.308304 0.31603 0.323765 0.331499 0.339234 0.346969 0.354688 0.362423
0.370157 0.377891 0.385626 0.393338 0.401072 0.408806 0.416539 0.424273 0.43198 0.439712
0.447445 0.455178 0.462911 0.470612 0.478343 0.486075 0.493807 0.501539 0.509234 0.516965
0.524696 0.532426 0.540156 0.547846 0.555574 0.563302 0.571031 0.57876 0 0.00125411
0.00250916 0.00376552 0.00502333 0.00628271 0.00821401 0.010148 0.0120848 0.0140286 0.0159868 0.0169595
0.017936 0.0189166 0.0199013 0.0208901 0.0218846 0.0228898 0.0239067 0.0249354 0.025977 0.0265056
0.0270374 0.027576 0.0281214 0.0286756 0.0292411 0.0298144 0.0304006 0.0310008 0.0316275 0.0319464
0.0322652 0.0325847 0.0329052 0.0332402 0.0333109 0.0333814 0.0334521 0.0335227 0.0335804 0.0336575
0.0337331 0.0338079 0.033882 0.0339442 0.0341155 0.0342836 0.0344484 0.0346096 0.0347763 0.034919
0.0350589 0.0351961 0.0353301 0.0354494 0.0355696 0.0356893 0.0358085 0.035926 0.0360377 0.0361551
0.0362694 0.0363807 0.0364915 0.0366378 0.0367446 0.0368513 0.0369578 0.0370641 0.0371616 0.0373588
0.037556 0.0377565 0.0379598 0.0383813 0.0386142 0.0388476 0.0390789 0.0393082 0.0395329 0.0399954
0.0404521 0.0409055 0.041356 0.0418019 0.04226 0.042703 0.0431495 0.043599 0.0440516 0.0445267
0.0449957 0.0454752 0.0459596 0.0464521 0.0472821 0.048131 0.0489925 0.0498591 0.051804 0.0529304
0.0540572 0.0552079 0.0563792 0.0575856 0.0588506 0.0600884 0.0613084 0.0625377 0.0637725 0.0646608
0.0655372 0.0664125 0.0672826 0.0684105 0.0687279 0.0690455 0.0693632 0.0696814 0.07 0.0706527
0.0713058 0.0719598 0.0726148 0.0733926 0.0739619 0.074531 0.0750999 0.0756677 0.0762324 0.0774781
0.0787274 0.0799845 0.0812425 0.0825001 0.0849962 0.0874964 0.0899658 0.0923923 0.09479 0.0996295
0.104418 0.109068 0.11358 0.11794 0.121195 0.124439 0.127672 0.130894 0.134766 0.13972
0.144608 0.149433 0.154196 0.158897 0.166656 0.174426 0.182195 0.189963 0.197729 0.205473
0.213238 0.221003 0.228767 0.23653 0.244263 0.252025 0.259787 0.267549 0.275311 0.283036
0.290797 0.298557 0.306318 0.314079 0.321797 0.329556 0.337316 0.345076 0.352836 0.360547
0.368305 0.376063 0.383822 0.391581 0.399286 0.407043 0.4148 0.422557 0.430315 0.438014
0.445769 0.453525 0.46128 0.469036 0.47673 0.484484 0.492238 0.499992 0.507746 0.515435
0.523187 0.530939 0.538691 0.546443 0.554126 0.561874 0.569623 0.577372 0.585122 0
0.00125903 0.00251874 0.00377912 0.00504093 0.00630438 0.00823306 0.0101647 0.0120992 0.0140412 0.0159972
0.0169701 0.0179471 0.0189282 0.0199134 0.020903 0.0218975 0.0229025 0.0239193 0.0249478 0.0259893
0.0265183 0.0270501 0.0275878 0.0281321 0.0286858 0.0292487 0.0298193 0.0303995 0.0309922 0.0316144
0.0319306 0.0322474 0.0325646 0.0328818 0.0332115 0.0334494 0.0336861 0.0339207 0.0341493 0.034246
0.0343497 0.0344522 0.0345537 0.034654 0.034757 0.0349583 0.0351527 0.0353406 0.0355225 0.0356772
0.0357559 0.0358343 0.0359119 0.0359888 0.0360644 0.0360665 0.0360686 0.0360706 0.0360727 0.0360748
0.0362185 0.0363608 0.0365018 0.0366414 0.0368457 0.0369215 0.0369973 0.0370729 0.0371484 0.03722
0.0376781 0.0381413 0.0386179 0.0391024 0.0395169 0.0399789 0.0404301 0.0408801 0.0413322 0.0417926
0.0422693 0.042736 0.0431993 0.0436649 0.0441401 0.0446331 0.0451164 0.0455941 0.046077 0.0465738
0.0476078 0.048664 0.0497317 0.0508188 0.0515964 0.0516656 0.0517348 0.0518039 0.051873 0.0519421
0.0530707 0.0542245 0.055406 0.0566108 0.0578358 0.0591101 0.0603609 0.0615917 0.0628388 0.0640796
0.0647036 0.0653169 0.0659276 0.0665369 0.0671493 0.0677757 0.0683924 0.0689998 0.0696092 0.0702241
0.0714754 0.0727363 0.0739943 0.0752473 0.0764899 0.0772394 0.0779822 0.0787259 0.0794713 0.0803024
0.0807213 0.0811405 0.08156 0.0819804 0.0823925 0.0824656 0.0825386 0.0826116 0.0826845 0.0827574
0.0852688 0.0877648 0.0902456 0.0926681 0.095061 0.0998232 0.104536 0.109138 0.113629 0.117976
0.124878 0.131692 0.138387 0.144969 0.15924 0.162769 0.166297 0.169825 0.173352 0.176949
0.181156 0.185363 0.189569 0.193775 0.197981 0.20572 0.213463 0.221207 0.228949 0.236691
0.244419 0.25216 0.259901 0.267642 0.275383 0.283103 0.290843 0.298583 0.306323 0.314064
0.321777 0.329516 0.337256 0.344995 0.352735 0.360441 0.36818 0.375919 0.383657 0.391396
0.399097 0.406834 0.414572 0.42231 0.430048 0.437743 0.445479 0.453215 0.460952 0.468689
0.476378 0.484113 0.491849 0.499584 0.507319 0.515004 0.522738 0.530471 0.538205 0.545938
0.553618 0.561349 0.56908 0.576811 0.584543 0 0.00127992 0.00256048 0.00384229 0.00512558
0.00641037 0.00831679 0.0102257 0.0121374 0.0140556 0.0159859 0.0169579 0.017933 0.0189115 0.0198933
0.0208788 0.0218729 0.0228761 0.0238892 0.0249121 0.0259473 0.0263902 0.0268347 0.0272826 0.027734
0.0278574 0.0280062 0.0281551 0.0283041 0.0284533 0.0286027 0.0291461 0.0296938 0.0302487 0.0308123
0.031397 0.031472 0.0315469 0.0316219 0.0316969 0.031762 0.0319793 0.0321965 0.0324136 0.0326306
0.032851 0.0329312 0.0330112 0.0330912 0.0331709 0.03324 0.0334507 0.0336606 0.0338695 0.034075
0.0342869 0.0343493 0.0344112 0.0344727 0.0345337 0.0345867 0.0345923 0.0345978 0.0346033 0.0346089
0.0346144 0.0348295 0.03504 0.0352462 0.0354449 0.0356351 0.035657 0.0356788 0.0357006 0.0357224
0.0357447 0.0358462 0.0359469 0.0360465 0.0361474 0.0362916 0.0363853 0.0364785 0.036571 0.0366626
0.0367518 0.0368559 0.0369592 0.0370621 0.0371651 0.0373136 0.0374125 0.0375111 0.0376098 0.0377092
0.0378064 0.0380182 0.0382282 0.0384376 0.0386463 0.0388584 0.0390784 0.0392938 0.0395049 0.0397161
0.03993 0.0401461 0.0403605 0.040574 0.0407881 0.0410046 0.0412256 0.0414431 0.0416593 0.041876
0.0420935 0.0423123 0.0425296 0.0427468 0.0429644 0.0431832 0.0436282 0.0440736 0.0445221 0.0449741
0.0454341 0.0459128 0.0463794 0.0468381 0.0472998 0.0477751 0.0482576 0.0487383 0.0492189 0.0497033
0.0501956 0.0512123 0.0522344 0.053268 0.054355 0.0554597 0.0558213 0.0561834 0.0565465 0.0569113
0.0572962 0.0580896 0.0588826 0.059675 0.0604714 0.0612757 0.0624751 0.06365 0.0648311 0.0660274
0.0672192 0.0684455 0.0696476 0.0708272 0.0720004 0.0731658 0.0736364 0.0741062 0.0745764 0.0750471
0.0755083 0.0758148 0.0761214 0.0764281 0.076735 0.0770498 0.0774453 0.0778411 0.0782371 0.0786335
0.0790301 0.0813748 0.0837213 0.0860673 0.0883831 0.0906717 0.0951806 0.0997421 0.104211 0.108536
0.112753 0.121063 0.129342 0.13756 0.145605 0.153481 0.161222 0.168963 0.176701 0.184435
0.192167 0.199894 0.207621 0.215347 0.223071 0.230793 0.237697 0.2446 0.251502 0.258403
0.265314 0.266127 0.26694 0.267754 0.268567 0.26938 0.277094 0.284808 0.292523 0.300237
0.307952 0.315659 0.323373 0.331087 0.338801 0.346516 0.354216 0.36193 0.369644 0.377358
0.385072 0.392767 0.40048 0.408194 0.415907 0.423621 0.43131 0.439023 0.446735 0.454448
0.462161 0.469845 0.477557 0.485268 0.49298 0.500692 0.508372 0.516083 0.523793 0.531504
0.539214 0.546889 0.554597 0.562306 0.570015 0.577725 0 0.00127753 0.00255576 0.00383512
0.00511575 0.00639767 0.00829924 0.0102027 0.0121091 0.0140203 0.0159396 0.0169038 0.0178698 0.0188378
0.019808 0.0207805 0.0217542 0.022733 0.023717 0.0247056 0.025698 0.0266888 0.0276859 0.0286912
0.0296918 0.0307003 0.0307757 0.0308511 0.0309265 0.0310016 0.0310711 0.0319933 0.0328959 0.033778
0.034639 0.0354974 0.0359454 0.0363911 0.0368347 0.0372772 0.0377143 0.0381529 0.0385889 0.0390242
0.0394588 0.0398875 0.0403206 0.0407538 0.0411874 0.0416212 0.0420556 0.0424918 0.0429269 0.0433628
0.0437998 0.0442386 0.0451166 0.0460032 0.0468964 0.0477971 0.0487227 0.0496697 0.0506091 0.0515419
0.0524816 0.0534308 0.0541624 0.0548994 0.0556387 0.0563797 0.0575177 0.0576712 0.0578248 0.0579785
0.0581323 0.0582861 0.0592699 0.0602532 0.0612369 0.0622203 0.0632026 0.0652027 0.0671896 0.0691659
0.0711518 0.0731353 0.0750938 0.0770786 0.0790781 0.0810815 0.0830868 0.0870992 0.0911285 0.0951262
0.0990787 0.103026 0.105891 0.108762 0.111641 0.114513 0.117896 0.122851 0.127778 0.132678
0.137552 0.142398 0.150108 0.157821 0.165531 0.173238 0.180943 0.188637 0.196338 0.204037
0.211735 0.219431 0.227118 0.234811 0.242503 0.250194 0.257885 0.265567 0.273254 0.280941
0.288627 0.296312 0.303991 0.311674 0.319355 0.327037 0.334717 0.342393 0.350071 0.357749
0.365426 0.373102 0.380774 0.388448 0.396122 0.403795 0.411467 0.419136 0.426807 0.434477
0.442146 0.449815 0.457481 0.465148 0.472814 0.48048 0.488145 0.495809 0.503473 0.511136
0.518798 0.526459 0.534119 0.54178 0.549439 0.557099 0.564758 0 0.00127409 0.0025488
0.00382396 0.00510034 0.00637796 0.00827385 0.0101719 0.0120722 0.0139755 0.015883 0.0177923 0.0197068
0.0216262 0.0235503 0.0254824 0.0264533 0.0274211 0.0283841 0.0293421 0.0299612 0.0309793 0.0319897
0.0329896 0.0339794 0.0349574 0.0358664 0.036772 0.0376735 0.0385721 0.0394617 0.0403523 0.0412414
0.0421294 0.0430165 0.0439028 0.0456799 0.0474744 0.0492834 0.0511021 0.0529372 0.0538036 0.0546713
0.0555411 0.056413 0.0577666 0.058653 0.0595413 0.0604313 0.0613231 0.0622164 0.064092 0.0659704
0.0678517 0.0697355 0.0716214 0.0735169 0.0754045 0.0772932 0.0791833 0.0810744 0.0848704 0.0886654
0.0924651 0.0962692 0.100087 0.107786 0.115488 0.123145 0.130764 0.138399 0.146048 0.153694
0.161339 0.168983 0.176624 0.18427 0.191913 0.199554 0.207194 0.214832 0.222473 0.230111
0.237749 0.245385 0.25302 0.260659 0.268294 0.275929 0.283562 0.291195 0.298831 0.306464
0.314096 0.321728 0.329359 0.336992 0.344623 0.352253 0.359883 0.367511 0.375143 0.382771
0.390399 0.398027 0.405653 0.413282 0.420909 0.428535 0.43616 0.443785 0.451412 0.459037
0.466661 0.474284 0.481907 0.489532 0.497155 0.504777 0.512399 0.520019 0.527642 0.535262
0.542883 0.550502 0.558122 0 0.00127141 0.00254321 0.00381554 0.00508846 0.00636198 0.0101414
0.0139323 0.0177224 0.0215091 0.0252997 0.0257905 0.0262801 0.0267688 0.0272567 0.027686 0.0290757
0.0304601 0.0318394 0.0332135 0.0345851 0.0364263 0.0382579 0.0400727 0.0418833 0.0436889 0.0455002
0.0473088 0.0491188 0.0509374 0.0527675 0.0546037 0.0564413 0.0582818 0.0601251 0.0619711 0.0656732
0.0693892 0.0731212 0.0768682 0.0806189 0.0843893 0.0881578 0.0919266 0.0956974 0.0994707 0.107
0.114529 0.122062 0.12961 0.137173 0.144752 0.152327 0.159905 0.167482 0.175058 0.182639