# vtk DataFile Version 2.0
tracks
ASCII
DATASET POLYDATA
POINTS 2585 float
-1.001 -0.05 0.0011 -0.900789 -0.0500216 0.00109731 -0.800577 -0.0500431 0.00109463 -0.700366 -0.0500646
0.00109196 -0.600155 -0.050086 0.00108929 -0.499943 -0.0501074 0.00108663 -0.424945 -0.0501113 0.00107893
-0.349947 -0.0501523 0.0010688 -0.274949 -0.0501929 0.00105877 -0.19995 -0.0502331 0.00104883 -0.124952
-0.050273 0.00103898 -0.0499538 -0.0502825 0.00103921 0.0250446 -0.0502915 0.00104795 0.100043 -0.0503006
0.00105675 0.175041 -0.0503097 0.00106563 0.25004 -0.050319 0.00107459 0.400037 -0.0503131 0.00109069
0.550035 -0.0503114 0.00110493 0.700032 -0.0503098 0.00111935 0.85003 -0.0503081 0.00113395 1.00003
-0.0503064 0.00114875 1.15003 -0.0503172 0.00115596 1.30002 -0.050323 0.00116044 1.45002 -0.0503289
0.00116494 1.60002 -0.0503348 0.00116946 1.75002 -0.0503407 0.001174 1.90002 -0.0503493 0.00117687
2.05002 -0.050356 0.00117881 2.20001 -0.0503626 0.00118075 2.35001 -0.0503693 0.0011827 2.50001
-0.0503759 0.00118465 2.65001 -0.050384 0.0011857 2.80001 -0.0503922 0.00118639 2.95001 -0.0504004
0.00118709 3.10001 -0.0504087 0.00118779 3.25001 -0.0504169 0.00118848 3.40001 -0.0504248 0.00118877
3.55001 -0.0504338 0.00118935 3.70001 -0.0504428 0.00118993 3.85001 -0.0504518 0.00119051 4.00001
-0.0504607 0.0011911 4.15 -0.0504685 0.00119118 4.3 -0.0504783 0.00119185 4.45 -0.050488
0.00119253 4.6 -0.0504978 0.0011932 4.75 -0.0505075 0.00119388 4.9 -0.0505152 0.00119388
5.05 -0.0505255 0.00119471 5.2 -0.0505357 0.00119555 5.35 -0.0505459 0.00119638 5.5
-0.0505562 0.00119722 5.65 -0.0505638 0.00119718 5.8 -0.0505743 0.00119817 5.95 -0.0505849
0.00119916 6.1 -0.0505954 0.00120016 6.25 -0.050606 0.00120115 6.4 -0.0506135 0.00120109
6.55 -0.0506242 0.00120222 6.7 -0.050635 0.00120335 6.85 -0.0506457 0.00120448 7
-0.0506565 0.00120561 7.15 -0.050664 0.00120553 7.3 -0.0506748 0.00120676 7.45 -0.0506857
0.001208 7.6 -0.0506967 0.00120924 7.75 -0.0507076 0.00121049 7.9 -0.050715 0.00121039
8.05 -0.050726 0.00121172 8.2 -0.050737 0.00121305 8.35 -0.050748 0.00121438 8.5
-0.050759 0.00121571 8.65 -0.0507663 0.0012156 8.8 -0.0507774 0.00121701 8.95 -0.0507885
0.00121842 9.1 -0.0507996 0.00121983 9.25 -0.0508107 0.00122124 9.4 -0.050818 0.00122112
9.55 -0.0508756 0.00122323 9.7 -0.0509849 0.00122607 9.85 -0.0511461 0.00122964 10
-0.0513589 0.00123393 -1.001 -0.05 0.0537316 -0.900807 -0.0501063 0.0535767 -0.800614 -0.0502129
0.0533945 -0.700421 -0.0503431 0.0531786 -0.600229 -0.0505043 0.052927 -0.500035 -0.0506965 0.0526399
-0.425004 -0.0509453 0.0524173 -0.349973 -0.0512835 0.0521277 -0.274943 -0.0516692 0.0518589 -0.199912
-0.0520888 0.0516325 -0.124879 -0.0524928 0.0514884 -0.0498864 -0.0527608 0.0515251 0.0251064 -0.0529829
0.0516909 0.100099 -0.0532003 0.0519253 0.175092 -0.0534272 0.0522079 0.250087 -0.0536493 0.0525255
0.400077 -0.0540396 0.0531611 0.550067 -0.0544275 0.053676 0.700057 -0.054774 0.0541423 0.850047
-0.0550791 0.0545595 1.00003 -0.0553508 0.0549271 1.14681 -0.0557222 0.0552055 1.29358 -0.0560621
0.0554653 1.44035 -0.0563993 0.0556914 1.58712 -0.0567338 0.0558839 1.7045 -0.0569993 0.0560108
1.7136 -0.0570206 0.0560193 1.72271 -0.0570421 0.0560277 1.73181 -0.0570636 0.056036 1.74091
-0.0570853 0.0560443 1.75002 -0.057107 0.0560525 1.90002 -0.0574672 0.0561859 2.05002 -0.0578232
0.0563022 2.20001 -0.0581753 0.0564007 2.35001 -0.0585236 0.0564817 2.50001 -0.0588682 0.056545
2.65001 -0.0592177 0.0565972 2.80001 -0.0595671 0.0566427 2.95001 -0.0599157 0.0566805 3.10001
-0.0602634 0.0567106 3.25001 -0.0606103 0.056733 3.40001 -0.060958 0.0567504 3.55001 -0.0613072
0.0567671 3.70001 -0.0616549 0.0567818 3.85001 -0.0620011 0.0567944 4.00001 -0.0623457 0.056805
4.15 -0.0626879 0.0568132 4.3 -0.0630341 0.0568224 4.45 -0.0633788 0.0568308 4.6
-0.0637219 0.0568385 4.75 -0.0640636 0.0568455 4.9 -0.0644002 0.0568502 5.05 -0.0647423
0.0568568 5.2 -0.0650831 0.056863 5.35 -0.0654224 0.0568688 5.5 -0.0657604 0.0568743
5.65 -0.0660914 0.0568772 5.8 -0.066429 0.0568826 5.95 -0.0667653 0.0568878 6.1
-0.0671004 0.0568927 6.25 -0.0674342 0.0568975 6.4 -0.0677598 0.0568992 6.55 -0.0680928
0.056904 6.7 -0.0684245 0.0569086 6.85 -0.0687551 0.056913 7 -0.0690844 0.0569173
7.15 -0.0694048 0.0569183 7.3 -0.069733 0.0569227 7.45 -0.0700601 0.0569269 7.6
-0.070386 0.0569309 7.75 -0.0707106 0.0569349 7.9 -0.0710259 0.0569354 8.05 -0.0713493
0.0569394 8.2 -0.0716716 0.0569435 8.35 -0.0719927 0.0569475 8.5 -0.0723127 0.0569515
8.65 -0.0726229 0.0569518 8.8 -0.0729415 0.0569558 8.95 -0.0732589 0.0569597 9.1
-0.0735752 0.0569635 9.25 -0.0738903 0.0569672 9.4 -0.0741953 0.056967 9.55 -0.0745094
0.0569707 9.7 -0.074823 0.0569744 9.85 -0.0751361 0.0569781 10 -0.0754488 0.0569817
-1.001 -0.05 0.106363 -0.900818 -0.0500782 0.106138 -0.800636 -0.0501543 0.105866 -0.700455
-0.050257 0.105547 -0.600274 -0.05043 0.105006 -0.50009 -0.050673 0.104244 -0.424996 -0.0509606
0.103659 -0.349901 -0.0513097 0.103054 -0.274807 -0.051663 0.102517 -0.199711 -0.051962 0.102088
-0.124607 -0.0523055 0.101986 -0.0496047 -0.052555 0.102098 0.0253975 -0.0527498 0.102328 0.100399
-0.0529318 0.10264 0.175401 -0.0531344 0.103037 0.250411 -0.0533572 0.103518 0.400346 -0.053768
0.104518 0.550283 -0.0541773 0.105389 0.70022 -0.0545476 0.106173 0.850157 -0.0548872 0.10679
1.00009 -0.0551959 0.107241 1.15007 -0.0556401 0.107506 1.30006 -0.0559399 0.107804 1.45005
-0.0561884 0.10808 1.60003 -0.0564309 0.108324 1.75002 -0.0566675 0.108536 1.90002 -0.0569776
0.108681 2.05002 -0.0572248 0.108836 2.20001 -0.0574662 0.108976 2.35001 -0.057705 0.109098
2.50001 -0.0579414 0.109204 2.65001 -0.0582338 0.109273 2.80001 -0.0584846 0.109341 2.95001
-0.0587343 0.109402 3.10001 -0.0589832 0.109455 3.25001 -0.0592313 0.109501 3.40001 -0.059522
0.109535 3.55001 -0.0597767 0.109569 3.70001 -0.0600294 0.109601 3.85001 -0.0602806 0.109631
4 -0.0605301 0.109659 4.15 -0.0608145 0.109685 4.3 -0.061069 0.109707 4.45
-0.0613217 0.109728 4.6 -0.0615727 0.109748 4.75 -0.0618222 0.109767 4.9 -0.0621
0.10979 5.05 -0.0623524 0.109806 5.2 -0.0626031 0.109821 5.35 -0.0628524 0.109836
5.5 -0.0631003 0.10985 5.65 -0.0633715 0.109872 5.8 -0.0636213 0.109883 5.95
-0.0638695 0.109894 6.1 -0.0641164 0.109905 6.25 -0.0643621 0.109916 6.4 -0.0646272
0.109936 6.55 -0.064874 0.109944 6.7 -0.0651193 0.109952 6.85 -0.0653635 0.10996
7 -0.0656064 0.109968 7.15 -0.0658656 0.109987 7.3 -0.0661091 0.109993 7.45
-0.0663513 0.109999 7.6 -0.0665923 0.110004 7.75 -0.0668322 0.11001 7.9 -0.0670856
0.110028 8.05 -0.0673258 0.110032 8.2 -0.0675647 0.110036 8.35 -0.0678024 0.11004
8.5 -0.068039 0.110044 8.65 -0.0682869 0.110062 8.8 -0.0685235 0.110065 8.95
-0.0687588 0.110068 9.1 -0.068993 0.110071 9.25 -0.0692259 0.110074 9.4 -0.0694681
0.110091 9.55 -0.0697014 0.110092 9.7 -0.0699341 0.110093 9.85 -0.0701662 0.110095
10 -0.070398 0.110096 -1.001 -0.05 0.158995 -0.900796 -0.0500887 0.15877 -0.800593
-0.0501934 0.158425 -0.700392 -0.0503553 0.157689 -0.600196 -0.0505873 0.156478 -0.499992 -0.0508811
0.154639 -0.42472 -0.0514885 0.153037 -0.349437 -0.0519562 0.152117 -0.274149 -0.0523532 0.151555
-0.19886 -0.0527483 0.151262 -0.123699 -0.053066 0.151315 -0.0487806 -0.05319 0.151478 0.0261371
-0.0532698 0.151958 0.101053 -0.0534113 0.152663 0.175968 -0.0535799 0.153461 0.250944 -0.0537357
0.154289 0.400783 -0.0539509 0.15571 0.550624 -0.0544614 0.156887 0.700468 -0.0549374 0.157641
0.850313 -0.055339 0.15824 1.00014 -0.0557096 0.158672 1.15012 -0.0562166 0.158918 1.30009
-0.0565786 0.159197 1.45007 -0.0568467 0.159466 1.60005 -0.0570372 0.159721 1.75002 -0.057222
0.159943 1.90002 -0.0574813 0.160099 2.05002 -0.0576772 0.160265 2.20002 -0.0578608 0.160417
2.35001 -0.0580357 0.160554 2.50001 -0.0582081 0.160674 2.65001 -0.058437 0.160758 2.80001
-0.0586243 0.160841 2.95001 -0.0588092 0.160917 3.10001 -0.0589925 0.160985 3.25001 -0.0591751
0.161046 3.40001 -0.0594003 0.161097 3.55001 -0.0595897 0.161146 3.70001 -0.0597762 0.161194
3.85001 -0.0599604 0.16124 4 -0.0601431 0.161285 4.15 -0.0603604 0.161327 4.3
-0.0605481 0.161366 4.45 -0.0607332 0.161404 4.6 -0.060916 0.161441 4.75 -0.0610974
0.161477 4.9 -0.0613067 0.161517 5.05 -0.0614911 0.16155 5.2 -0.0616731 0.161583
5.35 -0.0618532 0.161615 5.5 -0.0620319 0.161646 5.65 -0.0622337 0.161685 5.8
-0.0624143 0.161713 5.95 -0.0625929 0.161742 6.1 -0.0627698 0.16177 6.25 -0.0629455
0.161798 6.4 -0.0631402 0.161835 6.55 -0.063317 0.16186 6.7 -0.063492 0.161886
6.85 -0.0636654 0.161911 7 -0.0638376 0.161936 7.15 -0.0640256 0.161972 7.3
-0.0641984 0.161995 7.45 -0.0643696 0.162018 7.6 -0.0645394 0.162041 7.75 -0.0647079
0.162064 7.9 -0.0648896 0.162099 8.05 -0.0650585 0.16212 8.2 -0.0652259 0.162141
8.35 -0.0653919 0.162163 8.5 -0.0655568 0.162184 8.65 -0.0657325 0.162218 8.8
-0.0658974 0.162238 8.95 -0.0660607 0.162258 9.1 -0.0662226 0.162278 9.25 -0.0663833
0.162297 9.4 -0.0665529 0.162331 9.55 -0.0667139 0.162349 9.7 -0.066874 0.162367
9.85 -0.0670334 0.162385 10 -0.0671924 0.162402 -1.001 -0.05 0.211626 -0.947633
-0.0500807 0.211469 -0.894265 -0.050166 0.211279 -0.840898 -0.0502559 0.211055 -0.787531 -0.0503904
0.210764 -0.724317 -0.0506344 0.210286 -0.679439 -0.0509123 0.209636 -0.634566 -0.0512473 0.208757
-0.589695 -0.0515864 0.207742 -0.544828 -0.0519304 0.206589 -0.499928 -0.0522808 0.205296 -0.46941
-0.0525751 0.204243 -0.438893 -0.0528797 0.203125 -0.408372 -0.0531688 0.202136 -0.377847 -0.0534435
0.201267 -0.329606 -0.0538625 0.200029 -0.288645 -0.0542024 0.199122 -0.24768 -0.0545422 0.198432
-0.20671 -0.0548863 0.198054 -0.165739 -0.055195 0.197963 -0.124884 -0.0554293 0.198135 -0.0496125
-0.0557371 0.198845 0.0256571 -0.0558762 0.199793 0.100922 -0.0559875 0.201074 0.176185 -0.0561324
0.202434 0.251487 -0.0562705 0.203588 0.251893 -0.0562712 0.203594 0.252299 -0.0562718 0.203599
0.252704 -0.0562724 0.203604 0.25311 -0.0562731 0.20361 0.253518 -0.0562737 0.203615 0.327869
-0.0563891 0.204587 0.402221 -0.0565066 0.205434 0.476574 -0.0566261 0.206154 0.550929 -0.0567744
[...]
POINT_DATA 2585
FIELD attributes 4
age 1 2585 float
0 0.00501121 0.0100224 0.0150336 0.0200448 0.0250561 0.0288056 0.0325533 0.036301 0.0400488 0.0437965
0.0475449 0.0512906 0.0550362 0.0587817 0.0625272 0.070024 0.0775229 0.0850219 0.0925208 0.10002
0.10752 0.115019 0.122519 0.130019 0.137519 0.145019 0.152519 0.160019 0.167518 0.175018
0.182518 0.190018 0.197517 0.205017 0.212517 0.220017 0.227516 0.235016 0.242516 0.250015
0.257515 0.265015 0.272515 0.280014 0.287514 0.295014 0.302514 0.310014 0.317513 0.325013
0.332513 0.340013 0.347512 0.355012 0.362512 0.370012 0.377512 0.385011 0.392511 0.400011
0.407511 0.41501 0.42251 0.43001 0.43751 0.44501 0.452509 0.460009 0.467509 0.475009
0.482509 0.490008 0.497508 0.505008 0.512508 0.520008 0.527507 0.535005 0.542503 0.55
0 0.00502604 0.0100533 0.0150747 0.020088 0.0250931 0.0288322 0.0325654 0.0362919 0.0400115
0.0437249 0.0474311 0.0511303 0.0548277 0.0585251 0.0622241 0.0696348 0.0770707 0.0845214 0.0919869
0.0994671 0.1068 0.114134 0.121469 0.128805 0.134673 0.135128 0.135584 0.136039 0.136494
0.136949 0.14445 0.15195 0.159449 0.166948 0.174446 0.181944 0.189442 0.196939 0.204436
0.211933 0.21943 0.226927 0.234424 0.241921 0.249418 0.256916 0.264414 0.271911 0.279409
0.286906 0.294405 0.301903 0.309401 0.316899 0.324397 0.331896 0.339395 0.346893 0.354392
0.36189 0.36939 0.376889 0.384388 0.391887 0.399386 0.406886 0.414385 0.421885 0.429384
0.436884 0.444385 0.451885 0.459385 0.466885 0.474385 0.481886 0.489386 0.496887 0.504388
0.511888 0.51939 0.526891 0.534392 0.541893 0.549394 0 0.00502803 0.0100579 0.0150819
0.0200994 0.0251106 0.0288577 0.0325976 0.0363284 0.0400543 0.0437705 0.0474752 0.0511741 0.0548719
0.0585688 0.0622652 0.0696635 0.0770888 0.0845322 0.0919978 0.099485 0.106988 0.114492 0.122
0.129508 0.137018 0.144533 0.152042 0.15955 0.167058 0.174565 0.182077 0.189583 0.197088
0.204594 0.212099 0.21961 0.227115 0.23462 0.242126 0.249631 0.257143 0.264648 0.272154
0.279659 0.287165 0.294678 0.302184 0.309689 0.317195 0.324701 0.332215 0.339721 0.347227
0.354733 0.36224 0.369753 0.37726 0.384766 0.392273 0.39978 0.407294 0.414801 0.422308
0.429815 0.437322 0.444837 0.452344 0.459851 0.467359 0.474866 0.482381 0.489889 0.497397
0.504905 0.512413 0.519928 0.527437 0.534945 0.542453 0.549961 0 0.00503013 0.0100663
0.0150996 0.020127 0.0251496 0.0289154 0.0326693 0.0364113 0.0401428 0.0438577 0.0475526 0.0512422
0.0549306 0.0586182 0.0623094 0.0696963 0.0771196 0.0845736 0.092044 0.0995356 0.107048 0.114561
0.122079 0.129602 0.137125 0.144655 0.152178 0.159701 0.167224 0.174746 0.182274 0.189795
0.197315 0.204836 0.212356 0.219883 0.227403 0.234923 0.242444 0.249964 0.257492 0.265012
0.272533 0.280054 0.287574 0.295102 0.302624 0.310145 0.317666 0.325187 0.332716 0.340237
0.347758 0.35528 0.362802 0.37033 0.377852 0.385374 0.392896 0.400418 0.407948 0.41547
0.422992 0.430514 0.438037 0.445567 0.453089 0.460612 0.468135 0.475657 0.483188 0.490711
0.498234 0.505757 0.51328 0.520811 0.528335 0.535858 0.543382 0.550905 0 0.00268271
0.0053671 0.00805317 0.0107386 0.0139174 0.0161727 0.0184276 0.0206818 0.0229352 0.0251894 0.0267193
0.0282471 0.029772 0.0312939 0.0336935 0.0357232 0.0377473 0.0397658 0.0417788 0.0437804 0.0474592
0.0511393 0.0548206 0.0585084 0.062209 0.062229 0.0622489 0.0622689 0.0622889 0.062309 0.0659715
0.069644 0.0733264 0.0770191 0.0807217 0.0813129 0.0819042 0.0824955 0.0830868 0.0836638 0.0868217
0.0899822 0.0931453 0.0963111 0.0994788 0.106999 0.114521 0.122048 0.12958 0.137117 0.14466
0.152197 0.159734 0.16727 0.174807 0.18235 0.189885 0.197421 0.204956 0.21249 0.220032
0.227567 0.235102 0.242637 0.250172 0.257714 0.265249 0.272784 0.280319 0.287855 0.295398
0.302933 0.310469 0.318005 0.325541 0.333084 0.34062 0.348156 0.355692 0.363228 0.370772
0.378308 0.385845 0.393382 0.400918 0.408462 0.415999 0.423536 0.431073 0.43861 0.446155
0.453692 0.461229 0.468767 0.476304 0.483849 0.491387 0.498925 0.506463 0.514 0.521546
0.529084 0.536622 0.54416 0.551699 0 0.00126445 0.00252927 0.00379478 0.00506109 0.00632822
0.0101157 0.0139116 0.0177191 0.0215331 0.0253297 0.0269135 0.0284871 0.0300539 0.0316135 0.0330047
0.0333301 0.0336552 0.03398 0.0343046 0.0346291 0.0364573 0.0382784 0.0400905 0.0418975 0.043695
0.0454955 0.0473005 0.0491176 0.0509396 0.0527658 0.0529169 0.053068 0.053219 0.0533701 0.0535286
0.0552074 0.0568888 0.0585731 0.0602602 0.0619499 0.0656455 0.069358 0.0730885 0.0768298 0.0805801
0.0843436 0.0881063 0.0918697 0.0956358 0.0994043 0.10694 0.114478 0.12202 0.129566 0.137116
0.144682 0.152235 0.159788 0.16734 0.174893 0.182454 0.190005 0.197557 0.205108 0.21266
0.220218 0.227769 0.23532 0.242871 0.250422 0.257981 0.265532 0.273084 0.280635 0.288187
0.295746 0.303298 0.310849 0.318401 0.325953 0.333513 0.341065 0.348617 0.356169 0.363721
0.371281 0.378834 0.386386 0.393939 0.401491 0.409052 0.416604 0.424157 0.43171 0.439263
0.446824 0.454377 0.46193 0.469483 0.477036 0.484597 0.49215 0.499704 0.507257 0.514811
0.522372 0.529926 0.537479 0.545033 0.552587 0 0.00126545 0.00253141 0.00379789 0.00506489
0.00633242 0.00822681 0.0101236 0.0120228 0.0139249 0.0158291 0.0177465 0.0196689 0.0215922 0.0235186
0.0254574 0.0264285 0.027397 0.028361 0.0293206 0.03028 0.0307565 0.0312315 0.0317044 0.0321752
0.0326892 0.0331437 0.0335962 0.0340467 0.0344952 0.0349413 0.0358516 0.0367587 0.0376617 0.0385605
0.0394504 0.0403395 0.0412272 0.0421142 0.0430008 0.043888 0.045234 0.0465868 0.0479466 0.0492942
0.0528825 0.0547113 0.0565538 0.0584077 0.0602683 0.0621296 0.0640009 0.0658733 0.0677479 0.0696251
0.0715064 0.073395 0.0752781 0.0771574 0.0790386 0.0809249 0.0840559 0.0871909 0.0903276 0.0934659
0.096122 0.0968813 0.0976406 0.0984001 0.0991598 0.0999195 0.107513 0.115109 0.122708 0.130311
0.137918 0.145551 0.153158 0.160761 0.168363 0.175965 0.183586 0.191186 0.198783 0.206381
0.213979 0.221596 0.229193 0.236789 0.244386 0.251982 0.259597 0.267194 0.274789 0.282385
0.289982 0.297595 0.305191 0.312787 0.320382 0.327978 0.33559 0.343186 0.350781 0.358376
0.365972 0.373582 0.381177 0.388772 0.396367 0.403962 0.411571 0.419166 0.426761 0.434355
0.44195 0.449558 0.457153 0.464747 0.472341 0.479935 0.487542 0.495136 0.50273 0.510323
0.517917 0.525523 0.533116 0.54071 0.548303 0.555897 0 0.00126279 0.00252626 0.00379076
0.00505644 0.0063233 0.00823333 0.0101454 0.0120611 0.0139803 0.0159047 0.017822 0.0197523 0.0216953
0.0236511 0.0256293 0.0266292 0.0276299 0.0286311 0.0296315 0.0306437 0.0308913 0.0311389 0.0313862
0.0316315 0.0318213 0.0325718 0.0333098 0.0340348 0.0347462 0.0354497 0.0358969 0.0363424 0.0367863
0.0372287 0.0376652 0.0381027 0.0385373 0.0389695 0.0394009 0.0398299 0.0402618 0.0406937 0.0411257
0.0415583 0.0419935 0.0424289 0.0428637 0.0432989 0.043735 0.0441733 0.0450501 0.0459363 0.0468328
0.0477409 0.0486663 0.0494153 0.0501631 0.0509132 0.0516668 0.0525967 0.0527489 0.0529012 0.0530535
0.053206 0.0533586 0.0543129 0.055266 0.0562211 0.0571789 0.0581388 0.0591077 0.0600758 0.0610449
0.062017 0.0629908 0.0649601 0.0669242 0.0688827 0.0708457 0.0727917 0.0747232 0.0766699 0.0786323
0.0805988 0.0825696 0.0865306 0.0904829 0.0944094 0.0983205 0.102235 0.110063 0.117859 0.125583
0.133248 0.140917 0.148616 0.156292 0.163964 0.171632 0.179297 0.186979 0.194643 0.202305
0.209965 0.217625 0.2253 0.232959 0.240617 0.248273 0.25593 0.263599 0.271256 0.278911
0.286565 0.294219 0.301886 0.309539 0.317192 0.324845 0.332497 0.340159 0.347811 0.355462
0.363112 0.370762 0.378421 0.386071 0.39372 0.401368 0.409016 0.416672 0.42432 0.431967
0.439613 0.447259 0.454912 0.462558 0.470203 0.477847 0.485491 0.493142 0.500786 0.508429
0.516071 0.523713 0.53136 0.539002 0.546643 0.554284 0.561925 0 0.00126442 0.00252948
0.0037952 0.00506156 0.00632917 0.00824622 0.0101657 0.0120885 0.0140175 0.0159587 0.0169288 0.0179018
0.0188779 0.0198572 0.0208397 0.0218274 0.0228231 0.0238278 0.0248415 0.0258657 0.0263833 0.0269027
0.0274257 0.0279524 0.0284854 0.0287758 0.0290676 0.0293618 0.0296586 0.0297565 0.0300565 0.0303579
0.0306601 0.0309621 0.0312724 0.0313688 0.0314652 0.0315617 0.0316585 0.0317292 0.0317647 0.0318001
0.0318356 0.0318711 0.0319048 0.0320681 0.0322313 0.0323943 0.0325572 0.0327213 0.0329003 0.0330789
0.033257 0.0334321 0.0335614 0.0336668 0.0337717 0.033876 0.0339794 0.0340842 0.0341944 0.0343031
0.0344104 0.0345166 0.0346034 0.0346584 0.0347131 0.0347675 0.0348216 0.0348745 0.0349718 0.0350687
0.0351652 0.0352612 0.0353551 0.0354778 0.0355991 0.0357189 0.0358377 0.0360319 0.0361316 0.0362309
0.0363299 0.0364287 0.0365179 0.0366035 0.0366893 0.0367751 0.0368608 0.037015 0.0371388 0.0372623
0.0373857 0.0375089 0.0376303 0.0378493 0.0380667 0.0382841 0.0385021 0.0387165 0.0389347 0.0391522
0.03937 0.0395882 0.0398062 0.0400272 0.0402464 0.0404659 0.0406856 0.0409061 0.0411264 0.0413462
0.0415662 0.0417869 0.0420102 0.0422348 0.0424575 0.0426802 0.0429035 0.0431278 0.0434672 0.0438083
0.044155 0.0445075 0.0446722 0.0448287 0.0449855 0.0451426 0.0453001 0.0454587 0.0459455 0.0464249
0.0469044 0.0473797 0.0478757 0.0483926 0.0488988 0.0494054 0.0499167 0.0504352 0.050513 0.0505909
0.0506689 0.0507472 0.0508237 0.051824 0.0528671 0.0539548 0.0550037 0.0560642 0.0572671 0.0584476
0.0596286 0.0608154 0.0620022 0.0624246 0.062846 0.0632671 0.0636885 0.0641668 0.0649479 0.0657214
0.0664911 0.0672628 0.0680332 0.06822 0.0684064 0.068592 0.0687768 0.0689593 0.0699579 0.0709549
0.0719502 0.0729436 0.0739329 0.0750849 0.0762571 0.0774329 0.0786102 0.0797898 0.0812995 0.0828102
0.0843279 0.085849 0.0878097 0.0885059 0.0891994 0.0898902 0.0905783 0.0912633 0.0957695 0.100251
0.10466 0.108977 0.113165 0.12134 0.129452 0.137491 0.145458 0.153344 0.161105 0.168866
0.176625 0.18438 0.192133 0.199883 0.207632 0.215379 0.223125 0.230868 0.237759 0.244649
0.251539 0.258427 0.265426 0.266252 0.267079 0.267906 0.268733 0.26956 0.277294 0.285029
0.292764 0.300499 0.308234 0.315961 0.323695 0.33143 0.339165 0.3469 0.354619 0.362354
0.370088 0.377823 0.385557 0.39327 0.401004 0.408738 0.416472 0.424205 0.431912 0.439645
0.447378 0.455111 0.462844 0.470545 0.478277 0.486009 0.493741 0.501473 0.509169 0.5169
0.524631 0.532361 0.540092 0.547781 0.55551 0.563239 0.570967 0.578697 0 0.00125411
0.00250917 0.00376554 0.00502335 0.00628273 0.00821405 0.010148 0.0120848 0.0140287 0.0159869 0.0169596
0.0179362 0.0189168 0.0199014 0.0208902 0.0218847 0.02289 0.0239068 0.0249356 0.0259772 0.0265058
0.0270376 0.0275762 0.0281216 0.0286758 0.0292413 0.0298146 0.0304008 0.031001 0.0316277 0.0319466
0.0322653 0.0325848 0.0329053 0.0332403 0.033312 0.0333836 0.0334552 0.0335269 0.0335853 0.0336609
0.0337351 0.0338085 0.0338813 0.0339427 0.0341144 0.0342827 0.0344478 0.0346093 0.0347763 0.0349187
0.0350584 0.0351955 0.0353293 0.0354485 0.0355689 0.0356889 0.0358083 0.0359261 0.036038 0.0361552
0.0362692 0.0363803 0.0364909 0.0366368 0.0367441 0.0368513 0.0369583 0.0370651 0.0371631 0.0373617
0.0375605 0.0377627 0.0379681 0.0383961 0.0386283 0.0388606 0.0390908 0.039319 0.0395425 0.0400059
0.0404631 0.0409168 0.0413672 0.0418125 0.0422688 0.0427104 0.0431554 0.0436034 0.0440543 0.0445264
0.0449924 0.0454709 0.045954 0.0464449 0.047329 0.048234 0.0491539 0.0500435 0.0517729 0.0528939
0.0540178 0.0551653 0.0563323 0.0575314 0.0587865 0.0600145 0.0612271 0.0624491 0.0636765 0.0645447
0.0654007 0.0662561 0.0671067 0.0682171 0.0685467 0.0688764 0.0692062 0.0695368 0.0698676 0.0706334
0.0714003 0.0721674 0.0729356 0.0738781 0.0743174 0.0747565 0.0751953 0.0756329 0.0760687 0.077308
0.0785517 0.0798031 0.0810549 0.0823061 0.0847911 0.0872798 0.0897385 0.0921547 0.0945465 0.0993743
0.104156 0.108799 0.113307 0.117663 0.12145 0.125223 0.12898 0.132723 0.137491 0.141811
0.146082 0.150304 0.154478 0.158605 0.166365 0.174134 0.181902 0.189668 0.197433 0.205178
0.212942 0.220705 0.228468 0.23623 0.243964 0.251725 0.259486 0.267247 0.275008 0.282733
0.290493 0.298252 0.306012 0.313772 0.32149 0.329249 0.337008 0.344767 0.352526 0.360238
0.367995 0.375753 0.383511 0.391269 0.398974 0.40673 0.414487 0.422243 0.43 0.4377
0.445455 0.453209 0.460965 0.46872 0.476414 0.484167 0.49192 0.499674 0.507427 0.515116
0.522868 0.530619 0.538371 0.546122 0.553806 0.561554 0.569302 0.577051 0.5848 0
0.00125903 0.00251875 0.00377914 0.00504095 0.00630441 0.00823309 0.0101647 0.0120993 0.0140412 0.0159973
0.0169702 0.0179472 0.0189283 0.0199135 0.0209031 0.0218976 0.0229027 0.0239194 0.0249479 0.0259894
0.0265184 0.0270503 0.0275879 0.0281322 0.0286859 0.0292489 0.0298195 0.0303996 0.0309922 0.0316144
0.0319306 0.0322473 0.0325645 0.0328817 0.0332114 0.0334489 0.0336851 0.0339193 0.0341474 0.0342442
0.0343481 0.034451 0.0345527 0.0346534 0.0347567 0.0349578 0.035152 0.0353396 0.0355214 0.0356758
0.0357537 0.0358313 0.0359081 0.0359841 0.0360642 0.0360652 0.0360662 0.0360673 0.0360683 0.0360693
0.0362136 0.0363565 0.036498 0.0366381 0.0368427 0.0369191 0.0369954 0.0370716 0.0371477 0.0372199
0.0376779 0.038141 0.0386175 0.0391015 0.0395152 0.0399764 0.0404268 0.0408758 0.0413268 0.0417859
0.0422613 0.042727 0.0431893 0.0436539 0.044128 0.0446194 0.0451015 0.0455783 0.0460603 0.0465562
0.0475882 0.0486429 0.0497095 0.0507959 0.0516252 0.051684 0.0517427 0.0518014 0.05186 0.0519186
0.0530466 0.0542005 0.0553814 0.0565852 0.0578085 0.0590806 0.0603295 0.0615586 0.062804 0.064043
0.0646658 0.0652786 0.0658888 0.0664975 0.067109 0.0677345 0.0683501 0.0689569 0.0695648 0.0701786
0.0714271 0.0726856 0.0739409 0.0751911 0.0764309 0.0772051 0.0779716 0.0787395 0.0795093 0.0803719
0.0808332 0.0812947 0.0817564 0.0822192 0.0826829 0.0851887 0.08768 0.0901564 0.0925751 0.0949657
0.0997249 0.104435 0.109036 0.113526 0.117875 0.124752 0.131541 0.138214 0.144772 0.15915
0.162535 0.165921 0.169305 0.172689 0.176137 0.180489 0.184841 0.189192 0.193543 0.197894
0.205633 0.213378 0.221122 0.228865 0.236608 0.244336 0.252078 0.25982 0.267562 0.275304
0.283024 0.290765 0.298506 0.306247 0.313988 0.321702 0.329442 0.337182 0.344923 0.352663
0.36037 0.36811 0.37585 0.383589 0.391329 0.39903 0.406769 0.414507 0.422246 0.429985
0.43768 0.445417 0.453155 0.460893 0.46863 0.47632 0.484056 0.491793 0.499529 0.507265
0.51495 0.522685 0.53042 0.538154 0.545889 0.553569 0.5613 0.569032 0.576765 0.584497
0 0.00127992 0.00256048 0.0038423 0.00512559 0.00641038 0.00831681 0.0102258 0.0121375 0.0140556
0.0159859 0.016958 0.0179331 0.0189115 0.0198934 0.0208788 0.021873 0.0228762 0.0238892 0.0249122
0.0259474 0.026389 0.0268322 0.0272788 0.0277288 0.0278527 0.0280024 0.0281523 0.0283023 0.0284524
0.0286027 0.0291461 0.0296938 0.0302486 0.0308123 0.0313968 0.0314712 0.0315455 0.0316198 0.0316942
0.0317588 0.0319767 0.0321945 0.0324122 0.0326297 0.0328507 0.0329304 0.0330101 0.0330896 0.0331689
0.0332377 0.0334488 0.0336591 0.0338682 0.0340741 0.0342864 0.0343485 0.0344101 0.0344713 0.0345321
0.0345849 0.0345904 0.0345959 0.0346015 0.034607 0.0346125 0.0348278 0.0350386 0.035245 0.0354439
0.0356344 0.035656 0.0356777 0.0356993 0.0357208 0.0357429 0.0358446 0.0359453 0.036045 0.036146
0.0362902 0.0363841 0.0364773 0.0365699 0.0366616 0.0367509 0.0368547 0.0369578 0.0370604 0.0371631
0.0373114 0.0374105 0.0375094 0.0376083 0.037708 0.0378053 0.0380171 0.0382271 0.0384364 0.0386451
0.0388572 0.0390771 0.0392925 0.0395035 0.0397147 0.0399285 0.0401446 0.0403589 0.0405723 0.0407863
0.0410029 0.0412239 0.0414415 0.0416577 0.0418742 0.0420917 0.0423105 0.0425278 0.0427449 0.0429623
0.0431812 0.0436263 0.0440718 0.0445205 0.0449726 0.045433 0.045912 0.046379 0.0468378 0.0472996
0.0477751 0.0482583 0.0487397 0.0492211 0.0497065 0.0501998 0.0512171 0.0522403 0.0532767 0.0543676
0.0554739 0.0558097 0.0561457 0.0564828 0.0568212 0.0571767 0.0579978 0.0588184 0.0596385 0.0604619
0.061294 0.0624939 0.0636717 0.0648567 0.0660562 0.0672487 0.0684745 0.0696768 0.070858 0.0720324
0.0731989 0.0735992 0.0739989 0.074399 0.0747994 0.0751925 0.0754905 0.0757886 0.0760869 0.0763853
0.0766911 0.0771659 0.0776412 0.0781169 0.0785931 0.0790697 0.0814156 0.0837635 0.08611 0.0884271
0.0907186 0.0952357 0.0998056 0.104276 0.108605 0.112826 0.121142 0.129428 0.137649 0.145697
0.153575 0.161318 0.16906 0.176798 0.184533 0.192266 0.199994 0.207722 0.215449 0.223173
0.230896 0.236036 0.241175 0.246315 0.251453 0.256585 0.259165 0.261746 0.264327 0.266907
0.269488 0.277202 0.284918 0.292635 0.300352 0.308068 0.315775 0.323492 0.331208 0.338925
0.346641 0.354342 0.362058 0.369774 0.37749 0.385206 0.392901 0.400617 0.408332 0.416048
0.423763 0.431453 0.439168 0.446883 0.454598 0.462312 0.469997 0.477711 0.485425 0.493139
0.500853 0.508532 0.516245 0.523958 0.531671 0.539383 0.547058 0.554768 0.562479 0.57019
0.577902 0 0.00127753 0.00255577 0.00383512 0.00511576 0.00639768 0.00829926 0.0102028 0.0121091
0.0140203 0.0159396 0.0169038 0.0178698 0.0188378 0.019808 0.0207805 0.0217543 0.022733 0.0237171
0.0247057 0.0256981 0.0266888 0.0276858 0.0286911 0.0296916 0.0307 0.0307752 0.0308504 0.0309256
0.0310006 0.03107 0.0319922 0.0328949 0.0337771 0.0346382 0.0354966 0.0359444 0.03639 0.0368335
0.0372759 0.0377129 0.0381514 0.0385873 0.0390225 0.0394569 0.0398855 0.0403185 0.0407516 0.0411851
0.0416188 0.0420532 0.0424893 0.0429243 0.0433601 0.043797 0.0442357 0.0451137 0.0460002 0.0468933
0.0477939 0.0487195 0.0496664 0.0506058 0.0515388 0.0524787 0.0534279 0.0541401 0.0548575 0.055577
0.0562981 0.0573933 0.057571 0.0577488 0.0579268 0.0581049 0.0582831 0.0592666 0.0602494 0.0612325
0.0622154 0.0631976 0.0651974 0.0671841 0.0691606 0.0711464 0.0731294 0.0750878 0.0770722 0.0790716
0.0810749 0.0830804 0.0870941 0.0911241 0.0951217 0.0990743 0.103021 0.105795 0.108573 0.111359
0.114139 0.117397 0.122454 0.127482 0.132482 0.137454 0.142397 0.150108 0.157821 0.165532
0.173239 0.180945 0.188639 0.19634 0.20404 0.211738 0.219435 0.227122 0.234815 0.242508
0.250199 0.25789 0.265572 0.27326 0.280947 0.288633 0.296319 0.303998 0.311681 0.319363
0.327045 0.334725 0.342401 0.35008 0.357758 0.365435 0.373112 0.380784 0.388459 0.396133
0.403806 0.411479 0.419148 0.426819 0.434489 0.442159 0.449828 0.457494 0.465162 0.472829
0.480495 0.48816 0.495824 0.503488 0.511151 0.518814 0.526476 0.534136 0.541797 0.549457
0.557117 0.564776 0 0.00127409 0.0025488 0.00382396 0.00510035 0.00637796 0.00827386 0.0101719
0.0120722 0.0139756 0.015883 0.0177923 0.0197068 0.0216262 0.0235503 0.0254823 0.0264532 0.027421
0.0283839 0.0293419 0.0299603 0.0309784 0.031989 0.032989 0.0339788 0.034957 0.0358659 0.0367714
0.0376729 0.0385714 0.0394609 0.0403515 0.0412405 0.0421285 0.0430155 0.0439018 0.0456789 0.0474733
0.0492823 0.0511009 0.052936 0.0537852 0.0546355 0.0554879 0.0563423 0.0576574 0.0585652 0.0594749
0.0603866 0.0613001 0.062215 0.0640906 0.065969 0.0678501 0.0697339 0.0716196 0.0735152 0.0754027
0.0772913 0.0791813 0.0810723 0.0848681 0.0886631 0.0924626 0.0962665 0.100085 0.107784 0.115487
0.123145 0.130764 0.138399 0.146049 0.153695 0.161341 0.168984 0.176626 0.184273 0.191916
0.199557 0.207198 0.214836 0.222478 0.230117 0.237754 0.245391 0.253026 0.260665 0.268301
0.275936 0.28357 0.291203 0.29884 0.306473 0.314106 0.321738 0.329369 0.337003 0.344634
0.352265 0.359895 0.367524 0.375155 0.382784 0.390413 0.398041 0.405668 0.413297 0.420924
0.42855 0.436176 0.443801 0.451428 0.459053 0.466678 0.474302 0.481925 0.48955 0.497173
0.504796 0.512418 0.520039 0.527662 0.535283 0.542903 0.550523 0.558143 0 0.00127142
0.00254321 0.00381554 0.00508846 0.00636198 0.0101414 0.0139323 0.0177224 0.021509 0.0252996 0.0257905
0.0262802 0.0267691 0.0272571 0.0276869 0.0290763 0.0304605 0.0318395 0.0332134 0.0345847 0.0364258
0.0382574 0.0400721 0.0418828 0.0436884 0.0454996 0.0473082 0.0491182 0.0509368 0.0527669 0.0546031
0.0564408 0.0582813 0.0601247 0.0619706 0.0656727 0.0693888 0.0731208 0.0768676 0.0806182 0.0843886
0.0881571 0.0919258 0.0956966 0.0994699 0.106999 0.114528 0.122061 0.129609 0.137173 0.144751
0.152327 0.159904 0.167482 0.175058 0.18264 0.190217 0.197795 0.205372 0.212948 0.220527