# vtk DataFile Version 2.0
tracks
ASCII
DATASET POLYDATA
POINTS 2600 float
-1.001 -0.05 0.0011 -0.900789 -0.0500217 0.00109729 -0.800577 -0.0500434 0.00109458 -0.700366 -0.050065
0.00109188 -0.600155 -0.0500865 0.00108918 -0.499943 -0.050108 0.00108649 -0.424945 -0.0501121 0.00107892
-0.349947 -0.050153 0.00106895 -0.274949 -0.0501936 0.00105907 -0.19995 -0.0502337 0.00104929 -0.124952
-0.0502735 0.0010396 -0.0499538 -0.0502834 0.00104008 0.0250446 -0.0502924 0.00104908 0.100043 -0.0503015
0.00105814 0.175041 -0.0503106 0.00106729 0.25004 -0.0503198 0.00107652 0.400037 -0.0503131 0.00109295
0.550035 -0.0503094 0.00110771 0.700032 -0.0503057 0.00112267 0.85003 -0.0503019 0.00113783 1.00003
-0.0502981 0.0011532 1.15003 -0.0503094 0.00116093 1.30002 -0.0503137 0.00116556 1.45002 -0.0503181
0.00117021 1.60002 -0.0503224 0.00117487 1.75002 -0.0503268 0.00117956 1.90002 -0.050336 0.00118289
2.05002 -0.0503412 0.00118482 2.20001 -0.0503465 0.00118675 2.35001 -0.0503517 0.00118869 2.50001
-0.050357 0.00119063 2.65001 -0.0503655 0.0011921 2.80001 -0.0503723 0.00119248 2.95001 -0.050379
0.00119286 3.10001 -0.0503857 0.00119324 3.25001 -0.0503924 0.00119361 3.40001 -0.0504007 0.00119423
3.55001 -0.050408 0.00119452 3.70001 -0.0504152 0.00119482 3.85001 -0.0504225 0.00119512 4.00001
-0.0504297 0.00119541 4.15 -0.0504379 0.00119581 4.3 -0.0504458 0.0011963 4.45 -0.0504537
0.00119679 4.6 -0.0504617 0.00119729 4.75 -0.0504696 0.00119778 4.9 -0.0504777 0.00119812
5.05 -0.0504861 0.00119889 5.2 -0.0504945 0.00119966 5.35 -0.050503 0.00120042 5.5
-0.0505114 0.00120119 5.65 -0.0505194 0.00120152 5.8 -0.0505282 0.00120256 5.95 -0.050537
0.00120359 6.1 -0.0505458 0.00120463 6.25 -0.0505547 0.00120566 6.4 -0.0505626 0.00120599
6.55 -0.0505717 0.00120725 6.7 -0.0505808 0.00120851 6.85 -0.0505899 0.00120977 7
-0.0505991 0.00121104 7.15 -0.0506069 0.00121134 7.3 -0.0506162 0.00121276 7.45 -0.0506255
0.00121419 7.6 -0.0506349 0.00121561 7.75 -0.0506442 0.00121703 7.9 -0.050652 0.00121731
8.05 -0.0506615 0.00121881 8.2 -0.050671 0.0012203 8.35 -0.0506805 0.00122181 8.5
-0.05069 0.00122331 8.65 -0.0506977 0.00122355 8.8 -0.0507073 0.00122507 8.95 -0.0507169
0.0012266 9.1 -0.0507265 0.00122813 9.25 -0.0507361 0.00122965 9.4 -0.0507438 0.00122984
9.55 -0.0508016 0.00123177 9.7 -0.0509132 0.00123416 9.85 -0.0510786 0.001237 10
-0.0512976 0.00124029 -1.001 -0.05 0.0537316 -0.900807 -0.0501093 0.0535764 -0.800614 -0.0502188
0.0533938 -0.700421 -0.0503524 0.0531785 -0.600229 -0.050518 0.052929 -0.500035 -0.0507153 0.0526454
-0.425004 -0.0509642 0.0524291 -0.349973 -0.0513029 0.0521484 -0.274943 -0.0516904 0.05189 -0.199912
-0.0521133 0.0516746 -0.124879 -0.0525221 0.0515417 -0.0498862 -0.0527967 0.0515871 0.0251066 -0.0530242
0.0517608 0.100099 -0.053247 0.0520035 0.175092 -0.0534798 0.0522947 0.250087 -0.0537083 0.0526206
0.400077 -0.0541125 0.0532698 0.550067 -0.0545074 0.0538027 0.700057 -0.0548597 0.0542873 0.850048
-0.0551694 0.0547231 1.00003 -0.0554447 0.0551098 1.15003 -0.0558389 0.0554125 1.30003 -0.0561953
0.0556968 1.45002 -0.0565504 0.0559462 1.60002 -0.0569043 0.0561605 1.73405 -0.0572196 0.0563206
1.73724 -0.0572276 0.0563239 1.74043 -0.0572355 0.0563272 1.74363 -0.0572435 0.0563305 1.74682
-0.0572514 0.0563338 1.75002 -0.0572594 0.0563371 1.90002 -0.0576353 0.0564904 2.05002 -0.0580067
0.0566259 2.20001 -0.0583742 0.0567433 2.35001 -0.0587376 0.0568426 2.50001 -0.059097 0.0569239
2.65001 -0.0594649 0.0569944 2.80001 -0.0598276 0.0570559 2.95001 -0.0601886 0.0571089 3.10001
-0.0605477 0.0571533 3.25001 -0.060905 0.0571891 3.40001 -0.0612673 0.0572209 3.55001 -0.0616254
0.0572503 3.70001 -0.0619814 0.0572775 3.85001 -0.0623354 0.0573026 4.00001 -0.0626872 0.0573256
4.15 -0.0630418 0.0573478 4.3 -0.0633944 0.0573698 4.45 -0.0637451 0.0573913 4.6
-0.0640942 0.0574123 4.75 -0.0644414 0.0574328 4.9 -0.0647897 0.0574528 5.05 -0.0651374
0.0574737 5.2 -0.0654837 0.0574945 5.35 -0.0658286 0.0575152 5.5 -0.0661719 0.0575358
5.65 -0.0665146 0.0575556 5.8 -0.0668581 0.0575767 5.95 -0.0672002 0.0575978 6.1
-0.0675412 0.0576188 6.25 -0.067881 0.0576397 6.4 -0.0682188 0.0576592 6.55 -0.0685581
0.0576804 6.7 -0.0688963 0.0577014 6.85 -0.0692334 0.0577223 7 -0.0695695 0.057743
7.15 -0.0699028 0.0577618 7.3 -0.0702379 0.0577823 7.45 -0.070572 0.0578026 7.6
-0.0709051 0.0578226 7.75 -0.0712372 0.0578423 7.9 -0.0715661 0.0578596 8.05 -0.071897
0.0578789 8.2 -0.072227 0.0578977 8.35 -0.072556 0.0579163 8.5 -0.0728841 0.0579345
8.65 -0.0732086 0.0579502 8.8 -0.0735352 0.0579677 8.95 -0.0738608 0.0579846 9.1
-0.0741852 0.0580011 9.25 -0.0745086 0.058017 9.4 -0.074828 0.0580304 9.55 -0.0751498
0.0580456 9.7 -0.0754711 0.0580604 9.85 -0.0757918 0.0580749 10 -0.0761119 0.058089
-1.001 -0.05 0.106363 -0.900818 -0.0500814 0.106138 -0.800636 -0.0501605 0.105864 -0.700455
-0.050267 0.105546 -0.600274 -0.0504451 0.105007 -0.50009 -0.0506945 0.10425 -0.424995 -0.0509832
0.103672 -0.349901 -0.0513341 0.103077 -0.274806 -0.0516908 0.102557 -0.199711 -0.051993 0.102143
-0.124606 -0.0523408 0.102056 -0.0496036 -0.0525968 0.102181 0.0253984 -0.052797 0.102423 0.1004
-0.0529844 0.102745 0.175401 -0.0531925 0.103149 0.250411 -0.0534211 0.103635 0.400347 -0.0538448
0.104642 0.550283 -0.0542591 0.105526 0.70022 -0.0546336 0.106323 0.850157 -0.0549794 0.106955
1.00009 -0.0552964 0.107421 1.15007 -0.0557691 0.1077 1.30006 -0.0560738 0.108016 1.45005
-0.0563256 0.108313 1.60003 -0.0565718 0.108579 1.75002 -0.0568125 0.108811 1.90002 -0.0571476
0.108978 2.05002 -0.0573995 0.109153 2.20001 -0.0576447 0.109313 2.35001 -0.0578873 0.109454
2.50001 -0.0581276 0.109579 2.65001 -0.0584422 0.109669 2.80001 -0.0586964 0.109753 2.95001
-0.0589482 0.109829 3.10001 -0.0591983 0.109897 3.25001 -0.0594466 0.109956 3.40001 -0.0597548
0.110008 3.55001 -0.0600082 0.110056 3.70001 -0.060259 0.110102 3.85001 -0.0605076 0.110146
4 -0.0607539 0.110187 4.15 -0.0610533 0.110231 4.3 -0.0613041 0.110269 4.45
-0.0615526 0.110307 4.6 -0.0617991 0.110344 4.75 -0.0620438 0.110381 4.9 -0.0623357
0.110424 5.05 -0.0625838 0.11046 5.2 -0.06283 0.110495 5.35 -0.0630746 0.110531
5.5 -0.0633175 0.110566 5.65 -0.0636029 0.11061 5.8 -0.0638481 0.110645 5.95
-0.0640917 0.110679 6.1 -0.0643339 0.110714 6.25 -0.0645748 0.110749 6.4 -0.0648541
0.110792 6.55 -0.0650967 0.110826 6.7 -0.0653378 0.11086 6.85 -0.0655777 0.110893
7 -0.0658164 0.110926 7.15 -0.06609 0.110969 7.3 -0.0663297 0.111001 7.45
-0.0665682 0.111032 7.6 -0.0668055 0.111063 7.75 -0.0670417 0.111094 7.9 -0.0673097
0.111136 8.05 -0.0675466 0.111165 8.2 -0.0677823 0.111193 8.35 -0.0680169 0.111221
8.5 -0.0682505 0.111249 8.65 -0.0685131 0.111289 8.8 -0.0687468 0.111315 8.95
-0.0689792 0.111341 9.1 -0.0692104 0.111365 9.25 -0.0694404 0.11139 9.4 -0.0696968
0.111427 9.55 -0.069927 0.111449 9.7 -0.0701565 0.11147 9.85 -0.0703853 0.111491
10 -0.0706135 0.111511 -1.001 -0.05 0.158995 -0.900796 -0.0500919 0.158769 -0.800593
-0.0502007 0.158422 -0.700392 -0.050369 0.157685 -0.600196 -0.05061 0.156474 -0.499992 -0.0509152
0.154638 -0.42472 -0.05153 0.153042 -0.349437 -0.0519999 0.152142 -0.274149 -0.0523989 0.15161
-0.19886 -0.0527972 0.15135 -0.123701 -0.0531196 0.151433 -0.0487813 -0.0532526 0.151615 0.0261375
-0.0533346 0.152097 0.101055 -0.0534741 0.152799 0.175971 -0.0536413 0.153592 0.250946 -0.0537942
0.154419 0.400785 -0.0540036 0.155868 0.550626 -0.0545196 0.157076 0.700469 -0.0550109 0.157846
0.850314 -0.0554325 0.158454 1.00014 -0.055825 0.158897 1.15012 -0.0563739 0.159152 1.30009
-0.0567544 0.159444 1.45007 -0.0570381 0.159732 1.60005 -0.0572415 0.160011 1.75002 -0.0574395
0.160256 1.90002 -0.0577334 0.160435 2.05002 -0.0579432 0.160623 2.20002 -0.0581382 0.160797
2.35001 -0.0583225 0.160956 2.50001 -0.0585045 0.161098 2.65001 -0.0587616 0.161204 2.80001
-0.0589579 0.161305 2.95001 -0.0591505 0.161399 3.10001 -0.0593401 0.161486 3.25001 -0.0595281
0.161564 3.40001 -0.0597762 0.161635 3.55001 -0.0599695 0.161701 3.70001 -0.0601593 0.161767
3.85001 -0.0603461 0.161831 4 -0.0605308 0.161893 4.15 -0.0607684 0.161958 4.3
-0.0609577 0.162017 4.45 -0.061144 0.162076 4.6 -0.0613276 0.162135 4.75 -0.0615095
0.162193 4.9 -0.0617383 0.162258 5.05 -0.0619236 0.162316 5.2 -0.0621065 0.162374
5.35 -0.0622871 0.162432 5.5 -0.0624663 0.16249 5.65 -0.0626873 0.162556 5.8
-0.0628687 0.162614 5.95 -0.0630479 0.162672 6.1 -0.0632253 0.16273 6.25 -0.0634013
0.162787 6.4 -0.0636152 0.162854 6.55 -0.063793 0.162911 6.7 -0.0639688 0.162968
6.85 -0.0641429 0.163024 7 -0.0643158 0.163081 7.15 -0.0645229 0.163147 7.3
-0.0646969 0.163202 7.45 -0.064869 0.163257 7.6 -0.0650396 0.163312 7.75 -0.0652092
0.163367 7.9 -0.0654096 0.163432 8.05 -0.0655799 0.163484 8.2 -0.0657484 0.163537
8.35 -0.0659155 0.163589 8.5 -0.0660815 0.163641 8.65 -0.0662756 0.163704 8.8
-0.0664418 0.163754 8.95 -0.0666061 0.163803 9.1 -0.0667688 0.163852 9.25 -0.0669304
0.1639 9.4 -0.0671173 0.163961 9.55 -0.0672791 0.164007 9.7 -0.0674398 0.164052
9.85 -0.0675997 0.164097 10 -0.0677589 0.164141 -1.001 -0.05 0.211626 -0.947605
-0.0500833 0.211468 -0.89421 -0.0501714 0.211276 -0.840815 -0.0502644 0.21105 -0.787421 -0.0504019
0.210758 -0.724152 -0.0506493 0.210277 -0.679307 -0.0509305 0.209627 -0.634467 -0.0512698 0.208751
-0.589629 -0.0516134 0.207738 -0.544795 -0.0519623 0.206589 -0.499928 -0.052318 0.2053 -0.46929
-0.052618 0.204246 -0.438655 -0.0529277 0.203131 -0.408014 -0.0532211 0.202146 -0.37737 -0.0534993
0.201286 -0.32759 -0.0539359 0.200029 -0.287033 -0.0542765 0.199156 -0.246472 -0.0546181 0.198508
-0.205907 -0.0549647 0.198166 -0.165341 -0.0552741 0.198105 -0.12489 -0.0555095 0.198302 -0.049616
-0.0558222 0.199063 0.0256555 -0.0559639 0.200045 0.100922 -0.0560756 0.201347 0.176187 -0.0562181
0.202726 0.232169 -0.056316 0.203602 0.236031 -0.0563218 0.203657 0.239893 -0.0563275 0.203711
0.243755 -0.0563331 0.203764 0.247617 -0.0563387 0.203817 0.251479 -0.0563442 0.20387 0.326237
-0.0564488 0.204882 0.400997 -0.0565571 0.205765 0.475758 -0.0566686 0.206519 0.55052 -0.0568107
[...]
POINT_DATA 2600
FIELD attributes 4
age 1 2600 float
0 0.00501117 0.0100223 0.0150335 0.0200447 0.0250558 0.0288054 0.032553 0.0363007 0.0400483 0.043796
0.0475443 0.0512899 0.0550353 0.0587808 0.0625262 0.0700228 0.0775217 0.0850205 0.0925193 0.100018
0.107518 0.115018 0.122518 0.130018 0.137517 0.145017 0.152517 0.160017 0.167517 0.175016
0.182516 0.190016 0.197516 0.205015 0.212515 0.220015 0.227515 0.235014 0.242514 0.250014
0.257513 0.265013 0.272513 0.280013 0.287512 0.295012 0.302512 0.310012 0.317511 0.325011
0.332511 0.340011 0.347511 0.35501 0.36251 0.37001 0.37751 0.385009 0.392509 0.400009
0.407509 0.415009 0.422508 0.430008 0.437508 0.445008 0.452507 0.460007 0.467507 0.475007
0.482507 0.490006 0.497506 0.505006 0.512506 0.520006 0.527504 0.535002 0.542499 0.549995
0 0.0050256 0.0100524 0.0150732 0.0200856 0.0250898 0.0288281 0.0325604 0.0362858 0.0400043
0.0437165 0.0474213 0.0511191 0.0548149 0.0585107 0.0622082 0.0696158 0.0770491 0.0844974 0.0919608
0.0994391 0.106931 0.114425 0.12192 0.129416 0.136116 0.136276 0.136435 0.136595 0.136755
0.136914 0.144414 0.151913 0.159411 0.166909 0.174406 0.181903 0.1894 0.196896 0.204392
0.211887 0.219383 0.226879 0.234375 0.24187 0.249366 0.256863 0.264359 0.271855 0.279351
0.286848 0.294345 0.301841 0.309338 0.316835 0.324332 0.33183 0.339327 0.346824 0.354321
0.361818 0.369316 0.376813 0.384311 0.391808 0.399306 0.406804 0.414302 0.4218 0.429298
0.436796 0.444294 0.451792 0.45929 0.466789 0.474287 0.481786 0.489284 0.496783 0.504282
0.511781 0.51928 0.526779 0.534277 0.541776 0.549275 0 0.00502762 0.010057 0.0150805
0.0200972 0.0251074 0.0288537 0.0325927 0.0363224 0.040047 0.0437619 0.0474651 0.0511625 0.0548587
0.058554 0.0622488 0.0696439 0.0770665 0.0845073 0.0919702 0.0994547 0.106955 0.114456 0.121961
0.129467 0.136975 0.144487 0.151994 0.159501 0.167007 0.174512 0.182022 0.189526 0.19703
0.204533 0.212036 0.219545 0.227048 0.234551 0.242054 0.249557 0.257066 0.264569 0.272073
0.279576 0.28708 0.29459 0.302093 0.309597 0.317101 0.324605 0.332115 0.339619 0.347123
0.354628 0.362132 0.369642 0.377147 0.384651 0.392155 0.39966 0.407171 0.414675 0.42218
0.429684 0.437189 0.4447 0.452205 0.45971 0.467215 0.47472 0.482232 0.489737 0.497242
0.504747 0.512252 0.519764 0.52727 0.534775 0.54228 0.549786 0 0.00502975 0.0100654
0.0150981 0.0201247 0.0251463 0.0289109 0.0326638 0.0364047 0.040135 0.0438482 0.0475415 0.0512293
0.054916 0.058602 0.0622912 0.0696742 0.0770938 0.0845443 0.0920106 0.0994981 0.107006 0.114515
0.122029 0.129548 0.137067 0.144592 0.152112 0.159631 0.167151 0.174669 0.182193 0.18971
0.197227 0.204744 0.21226 0.219783 0.227299 0.234815 0.242332 0.249848 0.257371 0.264888
0.272405 0.279922 0.287439 0.294962 0.302479 0.309996 0.317514 0.325031 0.332555 0.340072
0.34759 0.355107 0.362625 0.370149 0.377667 0.385184 0.392702 0.40022 0.407744 0.415262
0.42278 0.430298 0.437817 0.445341 0.452859 0.460378 0.467896 0.475415 0.48294 0.490458
0.497977 0.505496 0.513014 0.52054 0.528058 0.535577 0.543096 0.550615 0 0.0026839
0.00536947 0.0080567 0.0107433 0.0139244 0.0161776 0.0184303 0.0206822 0.0229332 0.0251851 0.0267204
0.0282536 0.0297838 0.031311 0.0337861 0.0357946 0.0377975 0.039795 0.041787 0.0437678 0.0474444
0.0511225 0.0548016 0.0584871 0.0612364 0.0614264 0.0616164 0.0618064 0.0619965 0.0621866 0.0658663
0.0695563 0.0732564 0.0769669 0.0806877 0.0813415 0.0819954 0.0826493 0.0833033 0.0839376 0.0870321
0.090129 0.0932283 0.0963299 0.0994334 0.106948 0.114465 0.121986 0.129513 0.137044 0.144581
0.152112 0.159644 0.167176 0.174707 0.182244 0.189774 0.197304 0.204834 0.212363 0.219899
0.227428 0.234957 0.242487 0.250016 0.257552 0.265081 0.272611 0.280141 0.287671 0.295207
0.302737 0.310268 0.317798 0.325328 0.332865 0.340395 0.347926 0.355456 0.362987 0.370524
0.378054 0.385585 0.393116 0.400647 0.408184 0.415715 0.423246 0.430777 0.438308 0.445846
0.453377 0.460908 0.468439 0.475971 0.483509 0.49104 0.498572 0.506104 0.513635 0.521173
0.528705 0.536237 0.543769 0.5513 0 0.0012644 0.00252917 0.00379462 0.00506086 0.00632792
0.0101152 0.0139107 0.0177177 0.0215308 0.025326 0.0269118 0.0284874 0.030056 0.0316174 0.0330677
0.0333789 0.0336897 0.0340001 0.0343105 0.0346207 0.0364475 0.0382672 0.0400778 0.0418831 0.0436791
0.0454777 0.0472814 0.0490971 0.0509177 0.0526224 0.0526465 0.0526705 0.0526946 0.0527186 0.0527427
0.0545714 0.0564035 0.0582388 0.0600776 0.0619194 0.0656124 0.069322 0.0730494 0.0767877 0.0805337
0.0842929 0.0880524 0.0918132 0.0955766 0.0993419 0.106871 0.114402 0.121936 0.129475 0.137018
0.144579 0.152124 0.15967 0.167215 0.174761 0.182316 0.189861 0.197405 0.204949 0.212493
0.220046 0.227589 0.235132 0.242676 0.250219 0.257773 0.265316 0.27286 0.280403 0.287947
0.295501 0.303045 0.310589 0.318133 0.325677 0.333232 0.340776 0.34832 0.355864 0.363408
0.370963 0.378507 0.386052 0.393596 0.40114 0.408695 0.41624 0.423784 0.431329 0.438873
0.446429 0.453973 0.461518 0.469063 0.476607 0.484163 0.491708 0.499253 0.506798 0.514343
0.521899 0.529443 0.536988 0.544533 0.552077 0 0.00126541 0.00253134 0.00379778 0.00506473
0.00633223 0.00822654 0.0101232 0.0120224 0.0139244 0.0158284 0.0177458 0.0196679 0.021591 0.0235169
0.0254549 0.0264254 0.0273932 0.0283567 0.0293158 0.0302745 0.030748 0.0312199 0.0316897 0.0321574
0.0326756 0.033131 0.0335844 0.0340358 0.0344852 0.034932 0.0358413 0.0367473 0.0376492 0.0385468
0.0394355 0.0403234 0.0412097 0.0420953 0.0429805 0.0438666 0.0450365 0.0462113 0.0473914 0.0485767
0.0487261 0.0495503 0.0503762 0.0512039 0.0520335 0.0528641 0.0546905 0.0565309 0.0583827 0.0602412
0.0621 0.0639692 0.0658398 0.0677125 0.069588 0.0714674 0.0733536 0.0752351 0.0771128 0.0789924
0.0808767 0.0840859 0.0872987 0.0905124 0.093727 0.0964829 0.0971526 0.0978223 0.0984922 0.0991621
0.0998321 0.107405 0.114979 0.122563 0.130156 0.137758 0.145391 0.152995 0.160594 0.168193
0.175791 0.183413 0.191009 0.198603 0.206198 0.213792 0.221409 0.229002 0.236595 0.244188
0.251781 0.259395 0.266989 0.274581 0.282173 0.289766 0.297379 0.304972 0.312565 0.320157
0.32775 0.335362 0.342954 0.350546 0.358138 0.365731 0.373341 0.380934 0.388525 0.396117
0.40371 0.411319 0.418911 0.426502 0.434094 0.441686 0.449294 0.456886 0.464477 0.472069
0.479661 0.487268 0.49486 0.502451 0.510042 0.517634 0.525239 0.53283 0.540421 0.548013
0.555604 0 0.0012628 0.00252627 0.00379079 0.00505648 0.00632336 0.00823343 0.0101455 0.0120613
0.0139805 0.015905 0.0178222 0.0197523 0.0216951 0.0236503 0.0256274 0.0266266 0.0276264 0.0286263
0.0296251 0.0306354 0.0308745 0.0311136 0.0313523 0.0315892 0.0317753 0.0325316 0.0332754 0.034006
0.0347225 0.0354304 0.0358764 0.0363207 0.0367633 0.0372046 0.0376398 0.0380763 0.0385099 0.038941
0.0393714 0.0397998 0.0402308 0.0406618 0.0410929 0.0415245 0.0419588 0.0423932 0.0428269 0.0432613
0.0436966 0.0441341 0.0450088 0.0458939 0.0467899 0.0476952 0.0486173 0.0492522 0.0498869 0.0505233
0.0511621 0.0519203 0.0521934 0.0524668 0.0527405 0.0530144 0.0532889 0.0542404 0.0551889 0.0561398
0.0570968 0.0580549 0.0590211 0.0599874 0.0609548 0.0619245 0.0628955 0.0648555 0.0668107 0.0687609
0.0707148 0.0726515 0.0745766 0.0765144 0.0784651 0.0804207 0.0823788 0.0863113 0.0902385 0.0941458
0.0980392 0.101936 0.109724 0.117486 0.125194 0.132854 0.140524 0.148229 0.155909 0.163584
0.171255 0.178924 0.186611 0.194278 0.201944 0.209607 0.21727 0.22495 0.232612 0.240273
0.247933 0.255593 0.263268 0.270928 0.278587 0.286245 0.293903 0.301574 0.309232 0.316889
0.324545 0.3322 0.339869 0.347524 0.355179 0.362833 0.370487 0.378152 0.385806 0.393459
0.401111 0.408763 0.416425 0.424077 0.431728 0.439379 0.447029 0.454688 0.462339 0.469988
0.477637 0.485287 0.492943 0.500592 0.50824 0.515887 0.523534 0.531187 0.538834 0.54648
0.554126 0.561773 0 0.00126445 0.00252955 0.0037953 0.00506171 0.00632937 0.00824649 0.010166
0.0120888 0.0140179 0.0159593 0.0169295 0.0179025 0.0188788 0.0198581 0.0208407 0.0218284 0.0228242
0.0238289 0.0248426 0.0258667 0.0263842 0.0269035 0.0274263 0.0279528 0.0284855 0.0287497 0.0290151
0.0292823 0.0295517 0.0296535 0.0299729 0.0302939 0.0306162 0.0309382 0.0312693 0.0313564 0.0314435
0.0315307 0.031618 0.0316841 0.0317127 0.0317413 0.0317699 0.0317985 0.031826 0.0320034 0.0321806
0.0323577 0.0325346 0.0327131 0.0328766 0.0330397 0.0332025 0.0333628 0.0334844 0.0336022 0.0337192
0.0338355 0.0339507 0.0340678 0.0341774 0.0342854 0.0343921 0.0344977 0.034584 0.0346283 0.0346724
0.0347162 0.0347599 0.0348027 0.03491 0.0350167 0.0351229 0.0352286 0.0353324 0.0354426 0.0355517
0.0356595 0.0357665 0.0359348 0.0360497 0.0361642 0.0362783 0.0363921 0.0364924 0.0365911 0.03669
0.0367889 0.0368877 0.037086 0.0371889 0.0372917 0.0373944 0.0374969 0.0375983 0.037809 0.0380186
0.0382283 0.0384388 0.0386808 0.0388979 0.0391146 0.0393317 0.0395492 0.0397665 0.0399859 0.0402042
0.0404228 0.0406416 0.0408608 0.0410797 0.041298 0.0415168 0.0417362 0.0419576 0.0421801 0.0424009
0.0426224 0.0428445 0.0430676 0.043375 0.0436837 0.0439964 0.0443135 0.0444872 0.0446639 0.0448409
0.0450185 0.0451965 0.045376 0.0458563 0.0463307 0.0468055 0.0472765 0.0477695 0.0482806 0.048783
0.0492885 0.0497983 0.050315 0.0503345 0.050354 0.0503735 0.050393 0.0504123 0.0514483 0.0525249
0.0536485 0.0547375 0.0558432 0.0570263 0.0581904 0.0593586 0.0605329 0.0617065 0.0619208 0.0621349
0.062349 0.0625631 0.0627901 0.0636517 0.0645038 0.0653553 0.0662096 0.0673512 0.0674108 0.0674704
0.0675301 0.0675897 0.0676493 0.0688371 0.0699994 0.0711595 0.0723175 0.0734672 0.0745972 0.0757503
0.0769059 0.0780629 0.0792222 0.0800141 0.0808061 0.0816002 0.0823959 0.0832966 0.0847519 0.086195
0.0876256 0.0890442 0.0904491 0.0948642 0.0992608 0.103614 0.107895 0.112073 0.120248 0.128373
0.136441 0.144451 0.152354 0.160126 0.167896 0.175663 0.183428 0.19119 0.19895 0.206708
0.214465 0.22222 0.229973 0.23233 0.234687 0.237044 0.2394 0.241748 0.247143 0.252538
0.257933 0.263328 0.268723 0.276466 0.284217 0.291968 0.29972 0.307473 0.315208 0.322961
0.330715 0.338469 0.346223 0.353951 0.361706 0.369461 0.377217 0.384973 0.392694 0.40045
0.408207 0.415965 0.423723 0.431437 0.439195 0.446953 0.454712 0.462471 0.47018 0.477939
0.485698 0.493458 0.501219 0.508922 0.516682 0.524443 0.532204 0.539966 0.547663 0.555422
0.563182 0.570943 0.578705 0 0.00125417 0.00250928 0.00376572 0.00502361 0.00628308 0.00821451
0.0101486 0.0120855 0.0140295 0.0159879 0.0169608 0.0179376 0.0189183 0.0199032 0.0208922 0.0218868
0.0228922 0.0239091 0.0249378 0.0259795 0.0265082 0.0270399 0.0275784 0.0281236 0.0286777 0.0292431
0.0298163 0.0304016 0.0310006 0.0316269 0.0319455 0.0322639 0.0325833 0.0329037 0.0332392 0.0332401
0.033241 0.033242 0.0332429 0.0332438 0.0333932 0.0335427 0.033692 0.0338376 0.0339223 0.0340972
0.0342688 0.034437 0.0346014 0.0347711 0.0349116 0.0350494 0.0351847 0.0353168 0.0354342 0.0355564
0.035678 0.0357991 0.0359184 0.0360318 0.0361479 0.0362612 0.0363719 0.036482 0.0366259 0.0367345
0.0368429 0.0369511 0.0370591 0.0371582 0.0372484 0.0373385 0.0374294 0.0375209 0.0376452 0.0380162
0.0383927 0.0387787 0.0391623 0.039521 0.0399833 0.0404368 0.0408868 0.0413336 0.0417788 0.0422472
0.0426909 0.0431349 0.0435825 0.0440392 0.0445213 0.0449983 0.0454713 0.0459509 0.0464367 0.0471557
0.0478829 0.0486182 0.0493643 0.0494293 0.0498837 0.0503384 0.0507934 0.0512464 0.0517016 0.0528132
0.0539172 0.0550453 0.0561979 0.0573929 0.058637 0.059862 0.0610679 0.0622792 0.0634963 0.0643674
0.0652287 0.0660863 0.0669395 0.0679521 0.0682856 0.0686194 0.0689535 0.0692878 0.0696219 0.0697567
0.0698915 0.0700264 0.0701612 0.0702976 0.0707738 0.0712499 0.0717258 0.0722014 0.0726762 0.0732906
0.0738972 0.0745031 0.0751076 0.0757125 0.0769339 0.0781543 0.0793821 0.0806115 0.081842 0.0843025
0.0867706 0.0892179 0.0916413 0.0940273 0.0967326 0.0994276 0.102096 0.104731 0.109329 0.110934
0.112523 0.114098 0.115659 0.117203 0.125776 0.134267 0.142585 0.150713 0.158654 0.166424
0.174242 0.182059 0.189875 0.197691 0.205446 0.21326 0.221075 0.22889 0.236705 0.244448
0.252262 0.260076 0.267891 0.275707 0.283442 0.291256 0.299072 0.306888 0.314706 0.322433
0.330249 0.338065 0.345883 0.353702 0.361422 0.369239 0.377056 0.384874 0.392694 0.400408
0.408225 0.416043 0.423862 0.431682 0.439391 0.447208 0.455027 0.462847 0.470668 0.478371
0.486188 0.494007 0.501827 0.509648 0.517346 0.525165 0.532985 0.540805 0.548627 0.55632
0.564135 0.571952 0.57977 0.58759 0 0.0012591 0.00251889 0.00377935 0.00504126 0.00630482
0.00823373 0.0101656 0.0121003 0.0140425 0.0159991 0.0169723 0.0179495 0.0189309 0.0199165 0.0209064
0.0219012 0.0229066 0.0239236 0.0249525 0.0259943 0.0265235 0.0270554 0.0275931 0.0281376 0.0286914
0.0292546 0.0298253 0.0304054 0.0309981 0.0316206 0.0319368 0.0322536 0.0325706 0.0328876 0.033217
0.0334462 0.0336743 0.0339006 0.0341213 0.034218 0.0343284 0.0344376 0.0345456 0.0346524 0.0347623
0.0349563 0.0351439 0.0353254 0.0355013 0.0356585 0.0357417 0.0358247 0.0359074 0.0359891 0.0360687
0.0361635 0.0362566 0.0363499 0.0364434 0.0365628 0.036619 0.0366749 0.0367306 0.0367861 0.0368526
0.0369282 0.0370037 0.0370792 0.0371546 0.0372263 0.0376859 0.0381558 0.03864 0.0391324 0.0395535
0.0400172 0.0404722 0.0409284 0.0413868 0.0418495 0.0423277 0.0427972 0.043269 0.0437436 0.0442216
0.0447187 0.0452061 0.0456963 0.0461926 0.0466979 0.0477429 0.0488067 0.0498809 0.050962 0.0520689
0.0522728 0.0524761 0.0526798 0.0528841 0.0530903 0.0540194 0.0549606 0.055918 0.0568904 0.0578784
0.0591045 0.0603269 0.0615604 0.0628149 0.0640589 0.0645677 0.0650749 0.0655819 0.0660905 0.0666167
0.066725 0.0668333 0.0669415 0.0670495 0.0671574 0.0677767 0.0683954 0.0690149 0.0696352 0.070251
0.0714946 0.0727255 0.0739508 0.0751708 0.0763814 0.0769244 0.0774625 0.0780019 0.0785424 0.0791385
0.0798084 0.0804786 0.081149 0.0818177 0.0824851 0.0849118 0.0873257 0.0897288 0.092106 0.0944694
0.0992257 0.103888 0.108468 0.112968 0.117368 0.120965 0.124543 0.128087 0.131598 0.137874
0.142131 0.146337 0.150494 0.154603 0.158664 0.166433 0.174214 0.181994 0.189772 0.19755
0.205303 0.21308 0.220858 0.228635 0.236413 0.244154 0.251931 0.259708 0.267487 0.275265
0.282998 0.290776 0.298555 0.306334 0.314115 0.32184 0.32962 0.3374 0.345182 0.352964
0.360682 0.368463 0.376245 0.384027 0.39181 0.399523 0.407304 0.415087 0.42287 0.430655
0.438361 0.446144 0.453928 0.461712 0.469497 0.477198 0.484982 0.492766 0.500551 0.508337
0.516033 0.523818 0.531603 0.539389 0.547176 0.554867 0.562649 0.570433 0.578217 0.586003
0 0.00128004 0.00256072 0.00384268 0.00512614 0.00641111 0.00831783 0.0102271 0.012139 0.0140576
0.0159885 0.016961 0.0179365 0.0189154 0.0198978 0.0208837 0.0218783 0.022882 0.0238955 0.0249191
0.0259548 0.0264363 0.0269197 0.0274071 0.0278986 0.0280077 0.0281282 0.0282489 0.0283696 0.0284903
0.0286112 0.0291551 0.0297033 0.0302584 0.0308225 0.0314074 0.0314235 0.0314397 0.0314558 0.031472
0.0314876 0.0315324 0.0315772 0.031622 0.0316668 0.031708 0.0319386 0.0321691 0.0323995 0.0326297
0.0328639 0.032963 0.0330619 0.0331607 0.0332592 0.0333417 0.033535 0.0337275 0.0339187 0.034107
0.0343005 0.0343511 0.0344014 0.0344514 0.0345012 0.0345462 0.0345788 0.0346113 0.0346436 0.0346759
0.0347066 0.034906 0.0351015 0.0352933 0.0354767 0.0356501 0.0356882 0.0357262 0.0357641 0.0358018
0.0358411 0.035916 0.0359903 0.036064 0.0361386 0.0362425 0.0363505 0.0364576 0.0365639 0.0366694
0.0367714 0.0369073 0.0370418 0.0371756 0.0373096 0.0375318 0.0375911 0.0376505 0.0377102 0.0377701
0.0378296 0.038043 0.0382551 0.0384679 0.0386797 0.0388922 0.0391126 0.0393286 0.0395411 0.0397541
0.0399695 0.0401872 0.0404032 0.0406181 0.0408334 0.0410521 0.0412755 0.0414955 0.0417134 0.0419316
0.0421513 0.0423723 0.0425915 0.0428096 0.0430281 0.0432496 0.043701 0.0441524 0.0446069 0.0450647
0.0455261 0.0460018 0.0464637 0.0469271 0.0473932 0.0478689 0.0483551 0.0488342 0.0493111 0.049795
0.0502885 0.0513122 0.0523388 0.0533804 0.0544553 0.0555666 0.0558686 0.0561717 0.0564759 0.0567812
0.0570964 0.0579489 0.0588017 0.059658 0.0605216 0.0613972 0.0626092 0.0637938 0.0649684 0.0661558
0.067361 0.0685962 0.0698027 0.0709935 0.0721803 0.0733641 0.0736138 0.073863 0.0741124 0.074362
0.0746194 0.0755576 0.0764904 0.0774179 0.0783492 0.0792783 0.0816426 0.0840021 0.0863515 0.0886967
0.0910341 0.0956558 0.100328 0.104811 0.10913 0.113362 0.121753 0.130099 0.13836 0.14644
0.154341 0.162101 0.169858 0.177611 0.185362 0.193109 0.200854 0.208598 0.21634 0.22408
0.231819 0.233375 0.234932 0.236488 0.238044 0.239594 0.245775 0.251956 0.258137 0.264318
0.2705 0.278228 0.285965 0.293703 0.301441 0.30918 0.316902 0.324641 0.33238 0.34012
0.347861 0.355576 0.363317 0.371058 0.3788 0.386542 0.394251 0.401993 0.409735 0.417478
0.425222 0.432925 0.440669 0.448413 0.456157 0.463902 0.4716 0.479345 0.48709 0.494835
0.502582 0.510275 0.518021 0.525767 0.533514 0.541261 0.548949 0.556694 0.56444 0.572186
0.579934 0 0.00127767 0.00255607 0.00383561 0.00511647 0.00639865 0.00830065 0.0102046 0.0121114
0.0140232 0.0159432 0.0169079 0.0178745 0.018843 0.0198138 0.0207868 0.0217612 0.0227406 0.0237253
0.0247147 0.0257078 0.0266993 0.0276971 0.0287034 0.0297053 0.0307152 0.030801 0.0308867 0.0309725
0.0310579 0.0311361 0.0320492 0.0329435 0.0338184 0.0346729 0.0355258 0.0359757 0.0364233 0.0368692
0.0373139 0.0377533 0.0381941 0.0386328 0.0390708 0.0395081 0.0399398 0.0403755 0.0408114 0.0412475
0.0416838 0.0421201 0.0425579 0.0429949 0.0434325 0.043871 0.0443105 0.0451899 0.0460745 0.0469653
0.047862 0.0487778 0.0497168 0.0506467 0.0515678 0.0524938 0.0534341 0.0543681 0.0553116 0.0562597
0.0572112 0.0587893 0.0596684 0.0605488 0.0614302 0.0623123 0.0631941 0.0651961 0.0671849 0.06917
0.0711646 0.0731598 0.0751303 0.077128 0.0791398 0.0811564 0.0831836 0.0872597 0.0913455 0.0953782
0.0993512 0.103327 0.106198 0.109076 0.111968 0.114852 0.118425 0.123413 0.128365 0.133281
0.138162 0.143008 0.150735 0.15846 0.166183 0.173902 0.181619 0.189329 0.19704 0.20475
0.212459 0.220166 0.227869 0.235573 0.243276 0.250978 0.258679 0.266377 0.274076 0.281774
0.289471 0.297167 0.304862 0.312557 0.32025 0.327943 0.335636 0.343327 0.351018 0.358708
0.366397 0.374086 0.381774 0.389461 0.397148 0.404834 0.412519 0.420204 0.427888 0.435572
0.443255 0.450937 0.45862 0.466301 0.473981 0.481662 0.489341 0.497021 0.5047 0.512378
0.520056 0.527732 0.535409 0.543085 0.550761 0.558436 0.566111 0 0.00127429 0.00254922
0.00382462 0.00510126 0.00637917 0.00827555 0.0101741 0.0120751 0.0139791 0.0158872 0.0177972 0.0197123
0.0216325 0.0235575 0.0254906 0.0264622 0.0274309 0.0283949 0.0293542 0.0300118 0.0310239 0.0320283
0.0330225 0.0340069 0.0349798 0.035891 0.0367991 0.0377031 0.0386041 0.0394961 0.0403888 0.04128
0.04217 0.0430588 0.0439458 0.045724 0.0475174 0.0493228 0.0511366 0.0529667 0.0540895 0.0552142
0.0563428 0.0574755 0.0593022 0.0598833 0.0604651 0.0610478 0.0616312 0.0622153 0.0640863 0.0659603
0.0678375 0.0697179 0.0716009 0.0734974 0.0753827 0.0772698 0.0791585 0.0810485 0.0848462 0.0886442
0.092449 0.0962606 0.100091 0.107836 0.115588 0.123278 0.130913 0.138561 0.146223 0.153882
0.16154 0.169197 0.176851 0.18451 0.192166 0.19982 0.207473 0.215124 0.222778 0.230429
0.238079 0.245728 0.253375 0.261026 0.268674 0.276321 0.283967 0.291613 0.299261 0.306906
0.314551 0.322194 0.329837 0.337483 0.345126 0.352768 0.360409 0.36805 0.375693 0.383334
0.390974 0.398613 0.406251 0.413892 0.42153 0.429168 0.436805 0.444442 0.452081 0.459717
0.467353 0.474988 0.482623 0.49026 0.497895 0.505529 0.513163 0.520795 0.52843 0.536062
0.543695 0.551327 0.558958 0 0.00127163 0.00254365 0.00381622 0.00508939 0.00636318 0.0101434
0.0139352 0.0177265 0.0215151 0.0253082 0.0257934 0.0262775 0.0267608 0.0272432 0.0276643 0.0290622
0.0304548 0.0318424 0.0332249 0.0346052 0.0364489 0.0382826 0.0400995 0.0419119 0.0437189 0.0455309
0.0473393 0.0491479 0.0509637 0.0527899 0.0546225 0.0564556 0.0582914 0.0601301 0.0619716 0.0656656