# vtk DataFile Version 2.0
tracks
ASCII
DATASET POLYDATA
POINTS 2610 float
-1.001 -0.05 0.0011 -0.900789 -0.0500217 0.00109732 -0.800577 -0.0500434 0.00109464 -0.700366 -0.050065
0.00109197 -0.600155 -0.0500865 0.0010893 -0.499943 -0.0501081 0.00108664 -0.424945 -0.0501121 0.00107896
-0.349947 -0.0501531 0.00106891 -0.274949 -0.0501937 0.00105895 -0.19995 -0.050234 0.00104908 -0.124952
-0.0502739 0.00103931 -0.0499538 -0.0502834 0.00103958 0.0250446 -0.0502921 0.00104834 0.100043 -0.0503009
0.00105717 0.175041 -0.0503097 0.00106608 0.25004 -0.0503187 0.00107506 0.400037 -0.0503124 0.0010912
0.550035 -0.0503103 0.00110548 0.700032 -0.0503081 0.00111995 0.85003 -0.0503059 0.00113461 1.00003
-0.0503037 0.00114946 1.15003 -0.0503143 0.00115664 1.30002 -0.0503197 0.00116114 1.45002 -0.050325
0.00116565 1.60002 -0.0503304 0.00117019 1.75002 -0.0503358 0.00117474 1.90002 -0.0503442 0.00117757
2.05002 -0.0503504 0.00117953 2.20001 -0.0503566 0.0011815 2.35001 -0.0503627 0.00118346 2.50001
-0.0503689 0.00118543 2.65001 -0.0503768 0.00118645 2.80001 -0.0503845 0.00118718 2.95001 -0.0503923
0.0011879 3.10001 -0.0504001 0.00118863 3.25001 -0.0504079 0.00118936 3.40001 -0.0504157 0.00118961
3.55001 -0.0504242 0.00119023 3.70001 -0.0504327 0.00119085 3.85001 -0.0504413 0.00119147 4.00001
-0.0504498 0.0011921 4.15 -0.0504574 0.00119215 4.3 -0.0504667 0.00119287 4.45 -0.0504761
0.00119358 4.6 -0.0504854 0.0011943 4.75 -0.0504947 0.00119502 4.9 -0.0505022 0.001195
5.05 -0.0505121 0.00119588 5.2 -0.0505219 0.00119675 5.35 -0.0505317 0.00119763 5.5
-0.0505415 0.00119851 5.65 -0.0505489 0.00119845 5.8 -0.0505591 0.00119949 5.95 -0.0505692
0.00120052 6.1 -0.0505794 0.00120155 6.25 -0.0505895 0.00120259 6.4 -0.0505969 0.00120251
6.55 -0.0506072 0.00120367 6.7 -0.0506176 0.00120483 6.85 -0.050628 0.00120599 7
-0.0506383 0.00120716 7.15 -0.0506456 0.00120706 7.3 -0.0506561 0.00120832 7.45 -0.0506666
0.00120959 7.6 -0.0506772 0.00121085 7.75 -0.0506877 0.00121211 7.9 -0.0506949 0.00121201
8.05 -0.0507055 0.00121335 8.2 -0.0507161 0.0012147 8.35 -0.0507267 0.00121604 8.5
-0.0507374 0.00121739 8.65 -0.0507445 0.00121728 8.8 -0.0507552 0.00121869 8.95 -0.0507659
0.0012201 9.1 -0.0507766 0.00122152 9.25 -0.0507873 0.00122293 9.4 -0.0507943 0.00122281
9.55 -0.05085 0.00122501 9.7 -0.0509557 0.00122803 9.85 -0.0511114 0.00123188 10
-0.0513171 0.00123655 -1.001 -0.05 0.0537316 -0.900807 -0.0501082 0.0535759 -0.800614 -0.0502168
0.0533929 -0.700421 -0.0503491 0.0531764 -0.600229 -0.0505128 0.0529244 -0.500035 -0.0507078 0.0526373
-0.425004 -0.0509578 0.0524159 -0.349973 -0.0512971 0.0521284 -0.274943 -0.0516838 0.0518621 -0.199912
-0.0521041 0.0516382 -0.124879 -0.0525085 0.0514967 -0.0498864 -0.0527764 0.0515357 0.0251065 -0.0529976
0.0517029 0.100099 -0.0532136 0.0519384 0.175092 -0.0534385 0.052222 0.250087 -0.0536583 0.0525406
0.400077 -0.0540439 0.0531791 0.550067 -0.054427 0.0536952 0.700057 -0.054768 0.0541621 0.850047
-0.0550671 0.0545796 1.00003 -0.0553322 0.0549469 1.14719 -0.0556987 0.0552253 1.29434 -0.0560331
0.0554844 1.44149 -0.0563644 0.0557096 1.58864 -0.0566925 0.0559008 1.70597 -0.0569519 0.0560261
1.71478 -0.0569721 0.0560343 1.72359 -0.0569924 0.0560423 1.7324 -0.0570128 0.0560503 1.74121
-0.0570333 0.0560581 1.75002 -0.0570539 0.0560659 1.90002 -0.0574067 0.0561977 2.05002 -0.0577547
0.0563123 2.20001 -0.0580988 0.0564092 2.35001 -0.0584388 0.0564886 2.50001 -0.0587747 0.0565503
2.65001 -0.0591163 0.0566009 2.80001 -0.059457 0.0566449 2.95001 -0.0597969 0.0566813 3.10001
-0.060136 0.05671 3.25001 -0.0604742 0.056731 3.40001 -0.0608138 0.0567469 3.55001 -0.0611543
0.0567622 3.70001 -0.0614934 0.0567756 3.85001 -0.0618309 0.056787 4.00001 -0.062167 0.0567964
4.15 -0.0625014 0.0568032 4.3 -0.0628391 0.0568113 4.45 -0.0631752 0.0568187 4.6
-0.0635099 0.0568254 4.75 -0.0638431 0.0568313 4.9 -0.0641718 0.0568349 5.05 -0.0645055
0.0568406 5.2 -0.0648377 0.0568459 5.35 -0.0651685 0.0568509 5.5 -0.0654979 0.0568556
5.65 -0.0658209 0.0568576 5.8 -0.06615 0.0568623 5.95 -0.0664778 0.0568668 6.1
-0.0668043 0.0568711 6.25 -0.0671295 0.0568752 6.4 -0.0674471 0.0568762 6.55 -0.0677715
0.0568804 6.7 -0.0680946 0.0568845 6.85 -0.0684165 0.0568884 7 -0.0687371 0.0568923
7.15 -0.0690493 0.0568927 7.3 -0.0693688 0.0568967 7.45 -0.0696872 0.0569005 7.6
-0.0700042 0.0569043 7.75 -0.0703201 0.0569079 7.9 -0.070627 0.056908 8.05 -0.0709416
0.0569118 8.2 -0.071255 0.0569156 8.35 -0.0715672 0.0569194 8.5 -0.0718782 0.0569232
8.65 -0.0721799 0.0569233 8.8 -0.0724895 0.0569272 8.95 -0.0727979 0.0569309 9.1
-0.0731051 0.0569346 9.25 -0.073411 0.0569382 9.4 -0.0737073 0.0569379 9.55 -0.0740122
0.0569415 9.7 -0.0743167 0.0569451 9.85 -0.0746205 0.0569487 10 -0.0749239 0.0569522
-1.001 -0.05 0.106363 -0.900818 -0.0500802 0.106137 -0.800636 -0.0501583 0.105864 -0.700455
-0.0502633 0.105544 -0.600274 -0.050439 0.105002 -0.50009 -0.0506851 0.10424 -0.424996 -0.0509741
0.103656 -0.349901 -0.0513246 0.103053 -0.274807 -0.0516798 0.102519 -0.199711 -0.0519802 0.102093
-0.124607 -0.0523243 0.101995 -0.0496044 -0.0525739 0.102113 0.0253977 -0.052768 0.102347 0.100399
-0.0529488 0.102662 0.175401 -0.0531496 0.103063 0.250411 -0.0533702 0.103549 0.400346 -0.0537762
0.104557 0.550283 -0.0541807 0.105435 0.70022 -0.0545455 0.106224 0.850157 -0.0548782 0.106845
1.00009 -0.0551786 0.107297 1.15007 -0.055614 0.107564 1.30006 -0.0559056 0.10786 1.45005
-0.0561468 0.108134 1.60003 -0.0563815 0.108376 1.75002 -0.0566097 0.108585 1.90002 -0.0569131
0.10873 2.05002 -0.0571516 0.108883 2.20001 -0.0573841 0.10902 2.35001 -0.057614 0.109141
2.50001 -0.0578413 0.109244 2.65001 -0.0581265 0.109312 2.80001 -0.0583682 0.109378 2.95001
-0.0586087 0.109437 3.10001 -0.0588484 0.109488 3.25001 -0.0590875 0.109532 3.40001 -0.059371
0.109566 3.55001 -0.0596167 0.109598 3.70001 -0.0598605 0.109628 3.85001 -0.0601027 0.109656
4 -0.0603434 0.109682 4.15 -0.0606211 0.109707 4.3 -0.0608669 0.109727 4.45
-0.0611108 0.109746 4.6 -0.0613531 0.109765 4.75 -0.0615939 0.109783 4.9 -0.0618651
0.109805 5.05 -0.0621089 0.109819 5.2 -0.062351 0.109832 5.35 -0.0625916 0.109846
5.5 -0.0628308 0.109859 5.65 -0.0630955 0.109879 5.8 -0.0633367 0.109889 5.95
-0.0635763 0.109898 6.1 -0.0638147 0.109908 6.25 -0.0640517 0.109917 6.4 -0.0643102
0.109936 6.55 -0.0645484 0.109943 6.7 -0.0647852 0.109949 6.85 -0.0650208 0.109956
7 -0.065255 0.109962 7.15 -0.0655076 0.10998 7.3 -0.0657425 0.109985 7.45
-0.0659761 0.10999 7.6 -0.0662085 0.109994 7.75 -0.0664396 0.109998 7.9 -0.0666864
0.110016 8.05 -0.0669178 0.110019 8.2 -0.067148 0.110022 8.35 -0.067377 0.110025
8.5 -0.0676048 0.110027 8.65 -0.067846 0.110045 8.8 -0.0680738 0.110047 8.95
-0.0683002 0.110049 9.1 -0.0685255 0.11005 9.25 -0.0687495 0.110052 9.4 -0.0689849
0.110068 9.55 -0.0692092 0.110069 9.7 -0.069433 0.110069 9.85 -0.0696562 0.11007
10 -0.0698789 0.11007 -1.001 -0.05 0.158995 -0.900796 -0.0500906 0.158769 -0.800593
-0.0501973 0.158422 -0.700392 -0.0503616 0.157684 -0.600196 -0.0505965 0.156471 -0.499992 -0.0508937
0.154629 -0.42472 -0.0515026 0.153027 -0.349437 -0.0519731 0.152108 -0.274149 -0.0523733 0.151549
-0.19886 -0.0527716 0.151261 -0.1237 -0.0530916 0.151321 -0.0487805 -0.053216 0.151492 0.0261373
-0.0532943 0.151982 0.101053 -0.0534319 0.152696 0.175968 -0.0535961 0.153503 0.250945 -0.0537472
0.154338 0.400784 -0.053953 0.155769 0.550625 -0.0544542 0.156954 0.700469 -0.0549206 0.157715
0.850313 -0.0553127 0.158319 1.00014 -0.0556724 0.158754 1.15012 -0.0561677 0.159003 1.30009
-0.0565188 0.159281 1.45007 -0.0567783 0.15955 1.60005 -0.0569619 0.159804 1.75002 -0.0571391
0.160025 1.90002 -0.0573924 0.16018 2.05002 -0.0575804 0.160345 2.20002 -0.0577562 0.160496
2.35001 -0.0579233 0.160632 2.50001 -0.0580877 0.16075 2.65001 -0.0583106 0.160834 2.80001
-0.0584898 0.160915 2.95001 -0.0586668 0.16099 3.10001 -0.0588422 0.161057 3.25001 -0.0590168
0.161117 3.40001 -0.0592361 0.161167 3.55001 -0.0594177 0.161215 3.70001 -0.0595965 0.161261
3.85001 -0.0597731 0.161306 4 -0.0599483 0.161349 4.15 -0.0601603 0.161391 4.3
-0.0603406 0.161428 4.45 -0.0605184 0.161464 4.6 -0.060694 0.1615 4.75 -0.0608681
0.161535 4.9 -0.0610723 0.161574 5.05 -0.0612495 0.161605 5.2 -0.0614244 0.161636
5.35 -0.0615975 0.161666 5.5 -0.0617691 0.161696 5.65 -0.0619658 0.161734 5.8
-0.0621394 0.161761 5.95 -0.0623111 0.161788 6.1 -0.0624811 0.161814 6.25 -0.0626498
0.16184 6.4 -0.0628396 0.161876 6.55 -0.0630095 0.1619 6.7 -0.0631777 0.161924
6.85 -0.0633443 0.161948 7 -0.0635096 0.161971 7.15 -0.0636928 0.162006 7.3
-0.0638588 0.162028 7.45 -0.0640232 0.162049 7.6 -0.0641862 0.16207 7.75 -0.0643479
0.162092 7.9 -0.0645248 0.162126 8.05 -0.0646869 0.162146 8.2 -0.0648475 0.162165
8.35 -0.0650068 0.162185 8.5 -0.0651649 0.162205 8.65 -0.0653358 0.162239 8.8
-0.0654938 0.162258 8.95 -0.0656503 0.162276 9.1 -0.0658055 0.162294 9.25 -0.0659594
0.162313 9.4 -0.0661242 0.162345 9.55 -0.0662784 0.162363 9.7 -0.0664318 0.162379
9.85 -0.0665845 0.162396 10 -0.0667367 0.162412 -1.001 -0.05 0.211626 -0.947617
-0.0500815 0.211469 -0.894233 -0.0501677 0.211277 -0.84085 -0.0502584 0.211052 -0.787467 -0.0503937
0.21076 -0.724213 -0.0506385 0.21028 -0.679356 -0.0509169 0.209629 -0.634503 -0.0512525 0.20875
-0.589654 -0.0515921 0.207734 -0.544807 -0.0519368 0.206579 -0.499928 -0.0522881 0.205285 -0.469504
-0.0525821 0.204234 -0.439082 -0.0528862 0.20312 -0.408655 -0.0531747 0.202133 -0.378224 -0.0534488
0.201267 -0.329908 -0.0538687 0.200029 -0.288886 -0.0542094 0.199125 -0.247861 -0.0545498 0.198436
-0.206831 -0.0548941 0.198062 -0.1658 -0.0552026 0.197977 -0.124885 -0.0554358 0.198157 -0.0496129
-0.0557389 0.198882 0.025657 -0.0558731 0.199843 0.100922 -0.0559782 0.201134 0.176186 -0.0561156
0.202502 0.248418 -0.0562406 0.203615 0.249032 -0.0562415 0.203623 0.249646 -0.0562424 0.203631
0.250259 -0.0562433 0.203639 0.250873 -0.0562442 0.203647 0.251486 -0.0562451 0.203655 0.326243
-0.0563535 0.20464 0.401002 -0.0564636 0.205498 0.475761 -0.0565754 0.206227 0.550522 -0.0567154
[...]
POINT_DATA 2610
FIELD attributes 4
age 1 2610 float
0 0.0050112 0.0100224 0.0150336 0.0200448 0.025056 0.0288056 0.0325532 0.0363009 0.0400487 0.0437964
0.0475448 0.0512904 0.055036 0.0587816 0.0625271 0.0700239 0.0775229 0.0850219 0.0925208 0.10002
0.10752 0.115019 0.122519 0.130019 0.137519 0.145019 0.152519 0.160019 0.167519 0.175018
0.182518 0.190018 0.197518 0.205017 0.212517 0.220017 0.227517 0.235016 0.242516 0.250016
0.257515 0.265015 0.272515 0.280015 0.287514 0.295014 0.302514 0.310014 0.317513 0.325013
0.332513 0.340013 0.347513 0.355012 0.362512 0.370012 0.377512 0.385011 0.392511 0.400011
0.407511 0.415011 0.42251 0.43001 0.43751 0.44501 0.45251 0.460009 0.467509 0.475009
0.482509 0.490009 0.497508 0.505008 0.512508 0.520008 0.527507 0.535005 0.542503 0.55
0 0.00502591 0.010053 0.0150743 0.0200873 0.0250921 0.028831 0.032564 0.0362903 0.0400098
0.043723 0.0474291 0.0511284 0.0548258 0.0585232 0.0622224 0.0696333 0.0770695 0.0845205 0.0919863
0.0994667 0.106819 0.114172 0.121526 0.128881 0.134747 0.135188 0.135628 0.136069 0.136509
0.13695 0.14445 0.15195 0.15945 0.166949 0.174447 0.181945 0.189442 0.19694 0.204437
0.211934 0.219431 0.226928 0.234425 0.241922 0.249419 0.256917 0.264414 0.271912 0.279409
0.286907 0.294405 0.301903 0.309401 0.316899 0.324397 0.331896 0.339395 0.346893 0.354392
0.36189 0.36939 0.376888 0.384387 0.391886 0.399385 0.406885 0.414385 0.421884 0.429384
0.436883 0.444384 0.451883 0.459383 0.466883 0.474383 0.481884 0.489385 0.496885 0.504386
0.511886 0.519388 0.526889 0.534389 0.54189 0.549391 0 0.00502791 0.0100576 0.0150815
0.0200988 0.0251097 0.0288566 0.0325963 0.0363269 0.0400526 0.0437686 0.0474732 0.0511721 0.05487
0.0585669 0.0622634 0.0696619 0.0770875 0.0845312 0.0919969 0.0994844 0.106987 0.114492 0.121999
0.129508 0.137017 0.144532 0.152041 0.159549 0.167057 0.174564 0.182076 0.189582 0.197087
0.204592 0.212097 0.219608 0.227113 0.234618 0.242123 0.249628 0.25714 0.264645 0.272151
0.279656 0.287162 0.294674 0.30218 0.309685 0.317191 0.324697 0.33221 0.339716 0.347222
0.354728 0.362235 0.369748 0.377254 0.384761 0.392267 0.399774 0.407288 0.414794 0.422301
0.429808 0.437315 0.44483 0.452337 0.459844 0.467351 0.474859 0.482373 0.489881 0.497389
0.504896 0.512404 0.51992 0.527428 0.534936 0.542444 0.549952 0 0.00503002 0.0100661
0.0150992 0.0201264 0.0251488 0.0289143 0.032668 0.0364098 0.0401411 0.0438558 0.0475506 0.0512402
0.0549288 0.0586167 0.0623081 0.0696957 0.0771196 0.0845738 0.0920442 0.0995357 0.107048 0.114561
0.122079 0.129601 0.137124 0.144653 0.152176 0.159699 0.167221 0.174743 0.18227 0.189791
0.197311 0.204831 0.212351 0.219877 0.227397 0.234917 0.242437 0.249957 0.257483 0.265004
0.272524 0.280044 0.287565 0.295092 0.302613 0.310133 0.317654 0.325175 0.332703 0.340224
0.347745 0.355266 0.362787 0.370315 0.377837 0.385358 0.39288 0.400401 0.40793 0.415452
0.422974 0.430496 0.438018 0.445547 0.453069 0.460591 0.468114 0.475636 0.483166 0.490688
0.498211 0.505734 0.513257 0.520787 0.52831 0.535833 0.543356 0.550879 0 0.00268346
0.00536861 0.00805544 0.0107416 0.0139224 0.0161766 0.0184303 0.0206833 0.0229355 0.0251886 0.0267136
0.0282366 0.0297567 0.0312738 0.033677 0.0357096 0.0377365 0.0397579 0.0417738 0.0437783 0.047457
0.0511372 0.0548189 0.0585071 0.0620574 0.0620876 0.0621179 0.0621481 0.0621783 0.0622085 0.0658914
0.0695843 0.0732873 0.0770005 0.0807238 0.0813278 0.0819318 0.0825359 0.0831401 0.0837291 0.0868746
0.0900226 0.0931731 0.0963261 0.0994811 0.107001 0.114523 0.122049 0.129581 0.137117 0.144659
0.152195 0.159731 0.167268 0.174804 0.182345 0.18988 0.197415 0.204949 0.212483 0.220024
0.227558 0.235092 0.242626 0.250161 0.257702 0.265236 0.272771 0.280306 0.28784 0.295382
0.302917 0.310452 0.317987 0.325522 0.333065 0.3406 0.348135 0.355671 0.363206 0.370749
0.378285 0.385821 0.393357 0.400893 0.408436 0.415972 0.423508 0.431045 0.438581 0.446125
0.453661 0.461198 0.468735 0.476272 0.483816 0.491353 0.49889 0.506427 0.513964 0.521509
0.529046 0.536584 0.544121 0.551659 0 0.00126443 0.00252924 0.00379473 0.00506102 0.00632813
0.0101156 0.0139114 0.0177187 0.0215327 0.025329 0.0269059 0.0284726 0.0300326 0.0315855 0.0329797
0.0333098 0.0336396 0.0339691 0.0342983 0.0346274 0.0364554 0.0382764 0.0400885 0.0418953 0.0436927
0.0454931 0.0472983 0.0491154 0.0509376 0.052764 0.0528861 0.0530083 0.0531304 0.0532526 0.0533796
0.0550878 0.0567989 0.0585129 0.06023 0.0619497 0.0656463 0.0693599 0.0730914 0.0768336 0.0805842
0.0843475 0.08811 0.0918731 0.0956389 0.099407 0.106942 0.11448 0.122021 0.129567 0.137116
0.144681 0.152234 0.159786 0.167338 0.17489 0.182449 0.19 0.197551 0.205101 0.212652
0.22021 0.22776 0.23531 0.24286 0.250411 0.257968 0.265519 0.273069 0.28062 0.288171
0.295729 0.30328 0.310831 0.318382 0.325933 0.333492 0.341044 0.348595 0.356146 0.363698
0.371257 0.378809 0.38636 0.393912 0.401464 0.409023 0.416575 0.424127 0.431679 0.439232
0.446792 0.454344 0.461896 0.469449 0.477001 0.484562 0.492114 0.499667 0.50722 0.514773
0.522333 0.529886 0.537439 0.544992 0.552545 0 0.00126544 0.00253139 0.00379785 0.00506483
0.00633235 0.0082267 0.0101234 0.0120226 0.0139247 0.0158288 0.0177462 0.0196684 0.0215916 0.023518
0.0254567 0.0264278 0.0273963 0.0283603 0.0293199 0.0302793 0.0307519 0.031223 0.031692 0.0321589
0.0326699 0.0331281 0.0335843 0.0340384 0.0344906 0.0349402 0.0358504 0.0367573 0.0376602 0.0385588
0.0394486 0.0403376 0.0412252 0.042112 0.0429986 0.0438859 0.0451864 0.0464931 0.0478064 0.0491254
0.0491689 0.0499112 0.0506549 0.0514001 0.0521469 0.0528944 0.0547235 0.0565662 0.0584202 0.0602809
0.0621424 0.0640138 0.0658862 0.0677606 0.0696377 0.0715188 0.0734073 0.0752902 0.0771693 0.0790502
0.0809361 0.0840649 0.0871978 0.0903323 0.0934683 0.0961216 0.0968822 0.097643 0.0984039 0.0991649
0.099926 0.107517 0.11511 0.122707 0.130309 0.137916 0.145547 0.153153 0.160755 0.168357
0.175958 0.183579 0.191177 0.198775 0.206372 0.213969 0.221585 0.229182 0.236777 0.244373
0.251969 0.259583 0.267179 0.274774 0.282369 0.289965 0.297577 0.305173 0.312767 0.320362
0.327958 0.335569 0.343164 0.350758 0.358353 0.365948 0.373558 0.381152 0.388746 0.396341
0.403935 0.411544 0.419138 0.426732 0.434326 0.44192 0.449527 0.457121 0.464715 0.472308
0.479902 0.487508 0.495102 0.502695 0.510288 0.517881 0.525486 0.533079 0.540672 0.548265
0.555858 0 0.00126278 0.00252623 0.00379072 0.00505639 0.00632323 0.00823324 0.0101452 0.012061
0.0139801 0.0159045 0.0178218 0.019752 0.021695 0.0236508 0.0256289 0.0266289 0.0276296 0.0286306
0.0296309 0.030643 0.030888 0.0311331 0.0313778 0.0316206 0.0318093 0.032562 0.0333022 0.0340292
0.0347424 0.0354474 0.0358942 0.0363392 0.0367827 0.0372248 0.0376609 0.038098 0.0385324 0.0389643
0.0393955 0.0398243 0.040256 0.0406878 0.0411197 0.0415522 0.0419874 0.0424226 0.0428573 0.0432925
0.0437285 0.0441668 0.0450435 0.0459295 0.0468264 0.047734 0.0486587 0.049366 0.0500727 0.0507816
0.0514934 0.0523658 0.0525614 0.0527571 0.0529529 0.0531488 0.053345 0.0542986 0.0552503 0.056204
0.0571618 0.0581213 0.0590896 0.0600572 0.0610259 0.0619973 0.0629705 0.0649375 0.0668997 0.068857
0.0708186 0.0727629 0.0746936 0.0766389 0.078599 0.0805641 0.0825335 0.0864914 0.0904419 0.0943674
0.0982768 0.10219 0.110013 0.117803 0.125526 0.13319 0.140859 0.148557 0.156233 0.163905
0.171573 0.179238 0.186919 0.194583 0.202245 0.209906 0.217565 0.225239 0.232898 0.240556
0.248212 0.255869 0.263538 0.271194 0.278849 0.286503 0.294157 0.301823 0.309477 0.31713
0.324781 0.332433 0.340095 0.347747 0.355398 0.363048 0.370697 0.378356 0.386006 0.393654
0.401302 0.40895 0.416606 0.424253 0.4319 0.439546 0.447192 0.454845 0.462491 0.470135
0.47778 0.485424 0.493074 0.500718 0.508361 0.516002 0.523644 0.531291 0.538933 0.546574
0.554215 0.561856 0 0.00126441 0.00252947 0.00379518 0.00506154 0.00632915 0.00824619 0.0101656
0.0120884 0.0140174 0.0159586 0.0169287 0.0179016 0.0188778 0.019857 0.0208395 0.0218271 0.0228228
0.0238275 0.0248412 0.0258654 0.0263829 0.0269023 0.0274253 0.027952 0.028485 0.0287716 0.0290595
0.0293497 0.0296426 0.0297411 0.030044 0.0303482 0.0306534 0.0309584 0.0312718 0.031368 0.0314641
0.0315604 0.0316569 0.0317275 0.031761 0.0317944 0.0318279 0.0318613 0.0318932 0.0320586 0.0322239
0.032389 0.032554 0.0327203 0.0328971 0.0330734 0.0332494 0.0334224 0.0335506 0.0336579 0.0337645
0.0338705 0.0339756 0.0340823 0.0341929 0.034302 0.0344096 0.0345162 0.0346032 0.0346562 0.034709
0.0347614 0.0348135 0.0348645 0.0349635 0.035062 0.03516 0.0352576 0.0353531 0.0354741 0.0355936
0.0357117 0.0358287 0.0360198 0.0361216 0.0362229 0.0363239 0.0364249 0.0365156 0.0366025 0.0366895
0.0367765 0.0368635 0.0370236 0.0371449 0.037266 0.0373869 0.0375077 0.0376268 0.0378455 0.0380627
0.0382799 0.0384977 0.038712 0.03893 0.0391474 0.0393652 0.0395833 0.0398014 0.0400223 0.0402416
0.0404611 0.0406808 0.0409013 0.0411216 0.0413415 0.0415618 0.0417828 0.0420063 0.042231 0.0424539
0.042677 0.0429008 0.0431256 0.043448 0.0437718 0.0441009 0.0444354 0.0445963 0.0447689 0.0449419
0.0451153 0.0452892 0.0454644 0.0459533 0.0464341 0.0469152 0.0473914 0.0478901 0.0484091 0.048918
0.0494289 0.0499447 0.0504678 0.0505136 0.0505594 0.0506053 0.0506512 0.0506965 0.0517291 0.0528041
0.0539259 0.0550094 0.0561058 0.0573117 0.0584955 0.0596828 0.0608759 0.0620686 0.0624307 0.062792
0.0631533 0.0635148 0.0639171 0.0646769 0.0654295 0.0661809 0.0669345 0.0678861 0.0679336 0.0679812
0.0680287 0.0680763 0.0681238 0.0693327 0.0705192 0.071704 0.0728866 0.0740614 0.0752138 0.0763916
0.0775733 0.0787567 0.0799427 0.0812851 0.0826283 0.0839769 0.0853303 0.0869696 0.0878692 0.0887642
0.0896548 0.0905409 0.0914219 0.0959287 0.10041 0.104823 0.109146 0.113338 0.121514 0.129627
0.13767 0.145643 0.15353 0.161291 0.169051 0.176808 0.184563 0.192314 0.200063 0.207811
0.215557 0.223301 0.231043 0.23551 0.239977 0.244444 0.24891 0.253424 0.256685 0.259946
0.263207 0.266469 0.26973 0.277462 0.285197 0.292933 0.300668 0.308404 0.316129 0.323864
0.331599 0.339334 0.347069 0.354787 0.362521 0.370256 0.37799 0.385725 0.393436 0.40117
0.408903 0.416637 0.424371 0.432076 0.439809 0.447542 0.455275 0.463008 0.470707 0.478439
0.486171 0.493903 0.501634 0.509329 0.517059 0.52479 0.53252 0.54025 0.547938 0.555666
0.563394 0.571123 0.578852 0 0.00125412 0.00250918 0.00376555 0.00502337 0.00628276 0.00821407
0.0101481 0.0120849 0.0140287 0.0159869 0.0169596 0.0179362 0.0189168 0.0199014 0.0208902 0.0218847
0.0228899 0.0239068 0.0249355 0.0259771 0.0265057 0.0270375 0.0275761 0.0281214 0.0286756 0.0292411
0.0298144 0.0304005 0.0310005 0.0316272 0.0319461 0.0322649 0.0325844 0.032905 0.0332401 0.0333028
0.0333654 0.0334281 0.0334908 0.0335432 0.0336278 0.033711 0.033793 0.0338742 0.0339403 0.0341124
0.0342811 0.0344466 0.0346086 0.0347757 0.0349179 0.0350574 0.0351942 0.0353278 0.0354467 0.0355674
0.0356875 0.0358071 0.035925 0.0360371 0.0361542 0.0362681 0.0363791 0.0364896 0.0366352 0.0367425
0.0368496 0.0369565 0.0370631 0.037161 0.0373472 0.0375335 0.0377226 0.0379145 0.0382838 0.0385353
0.0387898 0.0390418 0.0392914 0.0395352 0.0399979 0.0404542 0.040907 0.0413567 0.0418015 0.0422601
0.042702 0.0431474 0.043596 0.0440477 0.0445228 0.044992 0.0454699 0.0459528 0.0464442 0.0472276
0.0480283 0.0488401 0.0496684 0.0497118 0.0501267 0.0505406 0.0509534 0.051365 0.0517785 0.0529078
0.0540358 0.0551881 0.0563616 0.0575716 0.0588419 0.0600842 0.0613073 0.062539 0.0637758 0.0646894
0.0655915 0.0664919 0.0673869 0.068541 0.0688346 0.0691284 0.0694223 0.0697166 0.0700112 0.0705653
0.0711197 0.071675 0.0722311 0.0728673 0.0729201 0.0729729 0.0730257 0.0730785 0.0731312 0.0737571
0.074382 0.0750068 0.0756309 0.0762513 0.0775005 0.0787529 0.0800138 0.0812771 0.0825394 0.0850434
0.0875528 0.0900314 0.0924663 0.0948682 0.0995664 0.104216 0.108734 0.113123 0.118044 0.120779
0.123508 0.126228 0.128941 0.132091 0.137636 0.143099 0.148484 0.153791 0.159021 0.16678
0.174552 0.182322 0.190091 0.197858 0.205601 0.213367 0.221133 0.228898 0.236663 0.244395
0.252158 0.25992 0.267683 0.275446 0.28317 0.290931 0.298692 0.306454 0.314215 0.321932
0.329692 0.337452 0.345212 0.352973 0.360683 0.368442 0.3762 0.383959 0.391719 0.399422
0.40718 0.414937 0.422695 0.430452 0.438151 0.445906 0.453662 0.461418 0.469174 0.476867
0.484621 0.492375 0.500129 0.507883 0.515571 0.523323 0.531075 0.538827 0.546579 0.554262
0.56201 0.569759 0.577508 0.585257 0 0.00125904 0.00251875 0.00377915 0.00504097 0.00630443
0.00823313 0.0101648 0.0120994 0.0140413 0.0159974 0.0169704 0.0179473 0.0189284 0.0199137 0.0209033
0.0218977 0.0229028 0.0239196 0.0249481 0.0259896 0.0265187 0.0270505 0.0275882 0.0281325 0.0286862
0.0292491 0.0298198 0.0303999 0.0309926 0.0316148 0.031931 0.0322478 0.0325649 0.0328821 0.0332118
0.0334487 0.0336842 0.0339178 0.0341454 0.0342421 0.0343466 0.03445 0.0345523 0.0346535 0.0347574
0.0349578 0.0351513 0.0353384 0.0355196 0.0356747 0.0357541 0.0358332 0.0359115 0.035989 0.0360648
0.0360774 0.0360901 0.0361027 0.0361153 0.0361283 0.0362632 0.0363969 0.0365294 0.0366607 0.0368492
0.0369244 0.0369995 0.0370745 0.0371494 0.0372206 0.0376787 0.0381422 0.0386189 0.0391033 0.0395168
0.0399778 0.0404279 0.0408769 0.0413281 0.0417867 0.0422616 0.0427268 0.0431892 0.0436537 0.0441264
0.0446162 0.0450971 0.0455743 0.0460569 0.0465527 0.0475861 0.0486421 0.0497116 0.0507997 0.0514837
0.051572 0.0516602 0.0517483 0.0518363 0.0519243 0.0530548 0.054209 0.0553919 0.0565978 0.0578234
0.0590963 0.0603465 0.0615782 0.062825 0.0640655 0.0646896 0.0653021 0.065912 0.0665201 0.0671323
0.0677587 0.0683752 0.0689837 0.0695942 0.0702092 0.0714618 0.0727236 0.0739836 0.0752393 0.0764852
0.0771491 0.0778079 0.0784676 0.0791284 0.0798554 0.0801884 0.0805215 0.080855 0.0811889 0.0815191
0.0817709 0.082023 0.0822752 0.0825273 0.0827789 0.085299 0.0878043 0.090295 0.0927245 0.0951229
0.0998952 0.104612 0.109217 0.113713 0.118067 0.124623 0.1311 0.137472 0.143739 0.159362
0.161355 0.163347 0.165339 0.167331 0.169347 0.175101 0.180853 0.186605 0.192356 0.198106
0.205844 0.213589 0.221333 0.229077 0.23682 0.244547 0.252289 0.260031 0.267772 0.275514
0.283233 0.290974 0.298715 0.306456 0.314196 0.321909 0.329648 0.337389 0.345129 0.352869
0.360575 0.368313 0.376053 0.383792 0.391531 0.399231 0.406969 0.414707 0.422445 0.430183
0.437877 0.445614 0.453351 0.461087 0.468824 0.476513 0.484249 0.491984 0.49972 0.507455
0.515139 0.522873 0.530607 0.538341 0.546074 0.553753 0.561484 0.569215 0.576946 0.584678
0 0.00127993 0.0025605 0.00384233 0.00512564 0.00641044 0.0083169 0.0102259 0.0121376 0.0140558
0.0159861 0.0169582 0.0179333 0.0189118 0.0198937 0.0208791 0.0218733 0.0228765 0.0238896 0.0249126
0.0259478 0.0263948 0.0268435 0.0272956 0.0277513 0.0278734 0.0280191 0.028165 0.0283109 0.028457
0.0286033 0.0291468 0.0296945 0.0302494 0.0308132 0.0313979 0.0313985 0.0313992 0.0313998 0.0314005
0.0314011 0.0314739 0.0315467 0.0316194 0.0316922 0.0317557 0.0319745 0.0321932 0.0324118 0.0326303
0.0328523 0.0329345 0.0330166 0.0330986 0.0331803 0.0332509 0.0334597 0.0336678 0.0338747 0.0340784
0.0342882 0.0343491 0.0344095 0.0344696 0.0345293 0.0345816 0.0345902 0.0345988 0.0346074 0.034616
0.0346244 0.0348378 0.0350468 0.0352513 0.0354483 0.0356366 0.0356604 0.0356842 0.0357079 0.0357316
0.0357558 0.0358542 0.0359517 0.0360481 0.036146 0.0362856 0.036381 0.0364757 0.0365698 0.036663
0.0367536 0.0368623 0.0369702 0.0370775 0.037185 0.0373433 0.0374365 0.0375296 0.0376227 0.0377165
0.0378084 0.0380204 0.0382306 0.0384404 0.0386496 0.0388616 0.0390815 0.0392968 0.0395078 0.039719
0.0399329 0.040149 0.0403634 0.0405766 0.0407904 0.0410072 0.0412284 0.0414462 0.0416623 0.0418787
0.0420962 0.042315 0.0425322 0.0427491 0.0429663 0.0431853 0.0436307 0.0440762 0.0445249 0.0449771
0.0454379 0.0459171 0.0463844 0.0468437 0.047306 0.0477819 0.048266 0.0487481 0.0492307 0.0497174
0.0502123 0.0512311 0.0522566 0.0532967 0.0543937 0.055505 0.0558211 0.0561375 0.0564548 0.0567732
0.057106 0.0579518 0.0587968 0.059641 0.0604884 0.0613454 0.062551 0.0637338 0.0649237 0.0661284
0.0673254 0.0685576 0.0697655 0.0709533 0.0721336 0.0733062 0.0736892 0.0740716 0.0744543 0.0748373
0.0752139 0.075497 0.0757803 0.0760638 0.0763474 0.0766377 0.0771512 0.0776652 0.0781798 0.078695
0.0792107 0.0815695 0.0839307 0.0862906 0.0886201 0.0909234 0.0954619 0.100054 0.104536 0.108869
0.113094 0.121412 0.129697 0.137917 0.145964 0.153843 0.161585 0.169326 0.177064 0.184798
0.19253 0.200258 0.207985 0.215711 0.223435 0.231157 0.235477 0.239797 0.244117 0.248436
0.25276 0.256157 0.259554 0.262952 0.266349 0.269746 0.277459 0.285175 0.292892 0.300608
0.308324 0.316031 0.323746 0.331462 0.339178 0.346894 0.354594 0.36231 0.370025 0.377741
0.385456 0.393151 0.400865 0.40858 0.416295 0.42401 0.431699 0.439413 0.447127 0.454841
0.462555 0.470239 0.477952 0.485665 0.493379 0.501092 0.508771 0.516483 0.524195 0.531907
0.539619 0.547293 0.555002 0.562712 0.570422 0.578133 0 0.00127754 0.0025558 0.00383516
0.00511582 0.00639775 0.00829936 0.0102029 0.0121093 0.0140206 0.0159399 0.0169041 0.0178701 0.0188381
0.0198084 0.0207809 0.0217547 0.0227335 0.0237176 0.0247062 0.0256987 0.0266895 0.0276866 0.0286921
0.0296928 0.0307015 0.0307774 0.0308534 0.0309293 0.0310051 0.0310751 0.0319968 0.0328992 0.0337811
0.034642 0.0355006 0.0359488 0.0363947 0.0368386 0.0372814 0.0377188 0.0381576 0.0385939 0.0390295
0.0394643 0.0398933 0.0403265 0.0407599 0.0411936 0.0416276 0.0420621 0.0424984 0.0429336 0.0433697
0.0438068 0.0442457 0.045124 0.046011 0.0469045 0.0478058 0.0487322 0.0496804 0.0506208 0.051554
0.0524943 0.0534442 0.0541865 0.0549342 0.0556843 0.0564361 0.0575926 0.0577349 0.0578773 0.0580198
0.0581624 0.058305 0.05929 0.0602746 0.0612595 0.0622441 0.0632274 0.0652304 0.06722 0.0691993
0.0711883 0.0731751 0.0751357 0.0771238 0.0791272 0.0811348 0.0831442 0.0871643 0.0912012 0.0952043
0.09916 0.10311 0.105964 0.108822 0.11169 0.11455 0.117928 0.122899 0.127842 0.132757
0.137644 0.142503 0.150214 0.157927 0.165638 0.173346 0.181052 0.188746 0.196448 0.204148
0.211846 0.219543 0.22723 0.234924 0.242617 0.250309 0.258 0.265683 0.273371 0.281058
0.288745 0.296431 0.30411 0.311793 0.319476 0.327157 0.334839 0.342514 0.350193 0.357872
0.365549 0.373226 0.380899 0.388573 0.396248 0.403921 0.411594 0.419264 0.426935 0.434605
0.442275 0.449944 0.457611 0.465279 0.472946 0.480612 0.488278 0.495942 0.503606 0.51127
0.518932 0.526595 0.534255 0.541916 0.549576 0.557236 0.564896 0 0.0012741 0.00254882
0.003824 0.0051004 0.00637803 0.00827396 0.010172 0.0120724 0.0139757 0.0158832 0.0177926 0.0197072
0.0216267 0.0235508 0.025483 0.026454 0.0274219 0.028385 0.029343 0.0299586 0.0309774 0.0319887
0.0329894 0.03398 0.034959 0.0358681 0.0367739 0.0376756 0.0385744 0.0394641 0.040355 0.0412443
0.0421324 0.0430196 0.043906 0.0456835 0.0474782 0.0492875 0.0511065 0.0529421 0.0538245 0.0547082
0.0555942 0.0564823 0.0578717 0.0587385 0.0596071 0.0604774 0.0613495 0.0622229 0.0640989 0.0659777
0.0678592 0.0697434 0.0716296 0.0735257 0.0754136 0.0773026 0.079193 0.0810845 0.0848815 0.0886777
0.0924786 0.0962841 0.100104 0.107806 0.115512 0.123171 0.130791 0.138427 0.146076 0.153723
0.161368 0.169012 0.176654 0.184301 0.191943 0.199585 0.207225 0.214863 0.222505 0.230144
0.237781 0.245418 0.253053 0.260692 0.268328 0.275963 0.283597 0.29123 0.298866 0.3065
0.314132 0.321764 0.329395 0.337029 0.34466 0.352291 0.35992 0.367549 0.375181 0.38281
0.390438 0.398066 0.405693 0.413322 0.420949 0.428576 0.436201 0.443826 0.451454 0.459079
0.466703 0.474327 0.48195 0.489575 0.497199 0.504821 0.512443 0.520064 0.527687 0.535308
0.542928 0.550548 0.558168 0 0.00127143 0.00254324 0.00381558 0.00508851 0.00636206 0.0101415
0.0139325 0.0177227 0.0215096 0.0253004 0.0257887 0.0262757 0.0267619 0.0272473 0.0276738 0.0290663
0.0304535 0.0318355 0.0332124 0.0345868 0.0364281 0.0382598 0.0400747 0.0418856 0.0436913 0.0455028
0.0473115 0.0491216 0.0509403 0.0527704 0.0546067 0.0564444 0.058285 0.0601284 0.0619744 0.0656768