# vtk DataFile Version 2.0
sampleSurface
ASCII
DATASET POLYDATA
POINTS 2021 float
-0.500032 0 0.11501 -0.499951 3.38813e-21 0.0392727 -0.789037 8.47033e-21 0.120673 -0.500013 -1.35525e-20
0.193965 1.00003 0 0.0485099 1.00003 0 0.0478584 0.475202 0 0.0353615
0.250044 1.41878e-20 0.0305359 0.2506 -5.42101e-20 0.117067 0.251301 0 0.203885 0.364989
0 0.203772 1.75002 0 0.113255 1.75002 0 0.0564279 2.50001 6.89146e-18
0.059229 2.21354 0 0.250758 2.50001 0 0.252875 3.25001 -3.47927e-17 0.0598775
3.25001 -1.69407e-21 0.253888 4.00001 5.60566e-18 0.0599857 4 0 0.253986 4.75
-1.79088e-17 0.0599988 4.75 8.47033e-22 0.253998 5.5 -2.79246e-17 0.0599999 5.5 -4.23516e-22
0.253999 6.25 1.01187e-17 0.06 6.25 0 0.254 7 2.93732e-17 0.06
7 0 0.254 7.75 -2.65294e-17 0.06 7.75 0 0.254 8.5
1.8923e-17 0.06 8.5 0 0.254 9.25 -2.88552e-17 0.06 9.25 -5.29396e-23
0.254 10 -2.64698e-23 0.254 10 0 0.06 -4.24997 0 0.0599042
-5 0 0.0599861 -5 0 0.253986 -4.24997 0 0.253912 -3.49995
0 0.0593815 -3.49994 0 0.253441 -2.74993 0 0.0570188 -2.74991 0
0.251316 -1.99991 0 0.0492276 -1.99987 0 0.242776 -1.24992 -1.69407e-21 0.03
-1.24985 1.23328e-17 0.222327 -1.24989 3.38813e-21 0.125756 -0.874924 2.08116e-17 0.03 -0.874929
0 0.122356 -0.124951 -8.47033e-22 0.03 -0.499941 0 0.03 -0.124922 -8.47033e-22
0.0385291 1.00021 0 0.231242 0.625368 0 0.203537 0.25004 -2.11758e-22 0.03
1.75003 0 0.247334 1.92873 1.69407e-21 0.441438 2.50001 0 0.447397 3.25
-1.69407e-21 0.447898 4 0 0.447986 4.75 0 0.447997 5.5 -4.23516e-22
0.447999 6.25 4.23516e-22 0.447999 7 0 0.448 7.75 -1.05879e-22 0.448
8.5 0 0.448 9.25 0 0.448 10 -2.64698e-23 0.448 -5
-8.47033e-22 0.447985 -4.24997 0 0.447919 -3.49993 0 0.4475 -2.74988 0
0.445609 -1.9998 6.77626e-21 0.437758 -1.24969 1.61411e-17 0.417681 -1.24976 -6.77626e-21 0.31973
-0.875161 7.70461e-18 0.216228 -0.875403 0 0.312476 -0.499924 -8.74138e-19 0.250039 -0.312433
0 0.250037 -0.312436 0 0.200025 -0.499924 0 0.200026 0.250062 3.38813e-21
0.24921 0.250039 -1.69407e-21 0.250046 0.250032 0 0.300069 0.437526 3.05948e-18 0.300066
0.625026 0 0.30005 1.00072 -8.23994e-18 0.326497 1.00196 0 0.423 1.75013
0 0.439575 1.75013 1.77877e-20 0.448245 1.00135 0 0.537141 1.00002 0
0.61834 1.74999 2.71051e-20 0.633055 2.49999 -3.38813e-21 0.641448 3.25 0 0.641907
4 -1.69407e-21 0.641985 4.75 -8.47033e-22 0.641996 5.5 -4.23516e-22 0.641998 6.25
0 0.641999 7 0 0.641999 7.75 0 0.642 8.5 5.29396e-23
0.642 9.25 -5.29396e-23 0.642 10 0 0.642 -5 0 0.641985
-4.24997 -1.69407e-21 0.641926 -3.49993 0 0.641557 -2.74988 0 0.639897 -1.99989
6.77626e-21 0.63382 -1.25099 2.55465e-18 0.614606 -1.25 -2.71051e-20 0.515981 -0.878244 0
0.50789 -0.875961 2.71051e-20 0.459694 -0.875609 0 0.410432 -0.498432 0 0.400603
-0.498071 -1.70762e-18 0.413126 -0.450805 0 0.413349 -0.45095 0 0.400955 0.250009
1.89735e-19 0.412703 0.25 2.71051e-20 0.425212 0.296872 1.00289e-18 0.425187 0.343754 -2.71051e-20
0.425153 0.343763 0 0.400146 0.250006 0 0.400175 1.00162 1.41488e-17 0.520353
-2 4.23516e-22 0.820145 -2.09502 -2.11758e-22 0.830091 -2 0 0.829497 -1.25123
0 0.813251 -1.25126 0 0.713737 -1.25101 6.77626e-21 0.62198 1.00059 0
0.714169 1.00094 0 0.809205 1.75018 0 0.82775 2.5 0 0.835521
3.25 0 0.835917 4 -1.69407e-21 0.835986 4.75 -8.47033e-22 0.835996 5.5
0 0.835998 6.25 0 0.835999 7 0 0.835999 7.75 0
0.836 8.5 0 0.836 9.25 0 0.836 10 0 0.836
-5 -8.47033e-22 0.835986 -4.24997 0 0.835935 -3.49995 0 0.835616 -2.74991
0 0.83419 -0.970118 0 0.703382 -0.87455 0 0.699864 -0.874264 -2.71051e-20
0.649852 -0.874033 -2.71051e-20 0.599873 -0.49698 0 0.599585 -0.497345 -9.21572e-19 0.612046
-0.450014 0 0.611892 -0.44938 2.71051e-20 0.599454 -2.00002 0 0.84097 -1.84639
-3.38813e-21 1.02215 -1.25185 0 1.01276 -0.896512 -3.38813e-21 0.900668 -0.908183 6.77626e-21
0.801076 -0.904022 -1.86347e-20 1.00093 0.624925 0 0.799916 0.249931 0 0.799891
0.249978 0 0.899916 0.249997 0 0.999939 0.999987 0 0.999957 1.75061
-2.1684e-19 1.02409 2.50003 0 1.0296 3.25 -1.69407e-21 1.02993 4 0
1.02999 4.75 0 1.03 5.5 0 1.03 6.25 2.11758e-22 1.03
7 0 1.03 7.75 0 1.03 8.5 5.29396e-23 1.03 9.25
0 1.03 10 0 1.03 -5 0 1.02999 -4.24998 0
1.02994 -3.49996 -8.47033e-22 1.02968 -2.74996 0 1.02849 -2.00026 0 1.02458
-0.87482 0 0.799893 -0.87491 0 0.899919 -0.49993 0 0.799862 -0.499958
7.6233e-19 0.849889 -0.312476 0 0.849885 -0.312472 0 0.799853 -1.25001 8.04681e-21
1.19601 -0.499979 5.29396e-23 1.10737 -0.731886 2.11758e-22 1.19997 -0.499981 0 1.19997
-0.124987 0 0.999933 -0.477759 -5.29396e-23 0.999933 -0.487556 -1.45584e-22 1.09995 0.250008
0 1.19997 1 0 1.19997 1.7507 0 1.22203 2.50003 -1.35525e-20
1.22368 3.25 0 1.22394 4 0 1.22399 4.75 4.23516e-22 1.224
5.5 0 1.224 6.25 2.11758e-22 1.224 7 0 1.224 7.75
1.05879e-22 1.224 8.5 0 1.224 9.25 0 1.224 10 2.64698e-23
1.224 -5 4.23516e-22 1.22399 -4.24999 -4.23516e-22 1.22395 -3.49998 0 1.22374
-2.75001 0 1.22279 -2.00077 0 1.21965 -1.24997 4.23516e-22 1.19997 -0.499969
-5.29396e-23 0.999933 -0.874942 0 0.999936 -0.499979 -1.32349e-23 1.09995 -2.75001 0
1.36967 -3.18711 4.23516e-22 1.41751 -2.75001 4.23516e-22 1.4171 -2.00072 3.38813e-21 1.29692
-2.00065 0 1.41474 -1.25823 6.35275e-21 1.40014 -0.980416 0 1.39998 -0.499986
0 1.39998 0.250009 0 1.39998 1 0 1.39998 1.75054 0
1.41682 2.50002 -1.35525e-20 1.41776 3.25 0 1.41796 4 4.23516e-22 1.41799
4.75 0 1.418 5.5 0 1.418 6.25 0 1.418 7
0 1.418 7.75 0 1.418 8.5 0 1.418 9.25 0
1.418 10 0 1.418 -5 0 1.41799 -4.24999 0 1.41797
-3.49999 -4.23516e-22 1.41781 -1.24998 0 1.39998 -2.80392 1.32349e-23 1.61143 -2.75
-1.32349e-23 1.6114 -2.0003 0 1.60983 -1.25396 2.64698e-23 1.60004 -1.12789 2.64698e-23
1.59999 -0.49999 1.05879e-22 1.59999 0.250008 0 1.59999 1.00001 4.23516e-22 1.59999
1.75038 0 1.61122 2.50002 0 1.61184 3.25 -4.23516e-22 1.61197 4
-4.23516e-22 1.61199 4.75 0 1.612 5.5 0 1.612 6.25 0
1.612 7 0 1.612 7.75 5.29396e-23 1.612 8.5 2.64698e-23 1.612
9.25 -1.32349e-23 1.612 10 -1.32349e-23 1.612 -5 0 1.61199 -4.24999
0 1.61198 -3.49999 0 1.61187 -1.24999 0 1.59999 -2.75 -1.32349e-23
1.63714 -2.64195 -2.11758e-22 1.80559 -2.00012 -8.47033e-22 1.80492 -1.25741 0 1.80004
-1.19082 -7.94093e-23 1.8 -0.499992 1.05879e-22 1.79999 0.250006 2.11758e-22 1.79999 1
0 1.8 1.75023 0 1.80561 2.50001 3.38813e-21 1.80592 3.25 0
1.80599 4 0 1.806 4.75 2.11758e-22 1.806 5.5 0 1.806
6.25 0 1.806 7 0 1.806 7.75 0 1.806 8.5
2.64698e-23 1.806 9.25 0 1.806 10 0 1.806 -5 0
1.806 -4.25 -2.11758e-22 1.80599 -3.49999 0 1.80594 -2.75 -1.05879e-22 1.8057
-1.24999 0 1.8 -2 -4.76456e-22 1.98532 -1.20969 -1.65436e-23 2 -0.499993
0 2 0.250006 0 2 1 0 2 1.75 0
2 2.5 0 2 3.25 0 2 4 0 2
4.75 -1.05879e-22 2 5.5 0 2 6.25 0 2 7
5.29396e-23 2 7.75 0 2 8.5 0 2 9.25 0
2 10 -1.32349e-23 2 -5 2.21817e-18 2 -4.25 1.05879e-22 2
-3.49999 0 2 -2.74999 0 2 -1.99999 -5.29396e-23 2 -1.24999
3.30872e-24 2 0.0956945 -5.42101e-20 0.203879 0.0632748 0 0.203876 0.0625511 0
0.250042 -0.403589 6.77626e-21 0.40138 -0.405779 7.7927e-19 0.38799 -0.406379 -6.77626e-21 0.375196
-0.499567 -1.35525e-20 0.375265 0.250006 -6.50521e-19 0.375144 0.156247 0 0.375155 0.156237
9.41901e-19 0.400212 0.203129 0 0.400201 0.249796 0 0.59991 0.249852 -1.0842e-19
0.587433 0.202953 0 0.587417 0.202888 6.50521e-19 0.599901 0.625121 -6.77626e-21 0.499953
0.717439 6.77626e-21 0.504955 0.625095 6.77626e-21 0.475379 0.343596 1.0842e-19 0.599918 0.343639
0 0.574939 0.296781 0 0.574964 0.249926 0 0.574977 0.62499 -4.2826e-18
0.549927 0.624917 4.55365e-18 0.599925 0.203133 0 0.412725 -0.449046 0 0.587135
-0.496581 5.42101e-20 0.587161 0.625036 -9.32414e-18 0.40006 0.625067 1.13164e-18 0.450032 0.249704
0 0.624881 0.155871 0 0.599866 0.155839 1.95156e-18 0.624853 0.249886 1.35525e-20
0.749873 0.062411 0 0.749846 0.0624478 -4.26227e-18 0.799869 -0.312472 0 0.749804
-0.499901 -3.38813e-21 0.749824 -0.691227 0 0.30453 -0.499912 3.02221e-18 0.300065 -0.875784
-3.11708e-18 0.361353 -0.592465 -2.71051e-20 0.40036 -0.499854 0 0.350135 -0.687111 1.35525e-20
0.350117 -0.68656 -2.71051e-20 0.40021 0.437526 -1.35525e-20 0.400108 0.437522 6.77626e-21 0.350086
0.250015 -2.51399e-18 0.35011 0.625027 3.38813e-21 0.350064 -0.592287 0 0.425286 -0.498048
0 0.425444 -0.873902 5.42101e-18 0.54992 -0.496663 0 0.574746 -0.591532 0
0.574798 -0.591729 0 0.599734 -0.149108 0 0.406489 -0.149477 -5.29396e-23 0.403592
-0.149678 0 0.406489 -0.451876 -2.1684e-18 0.499977 -0.451579 0 0.487563 -0.498366
0 0.487552 -0.498515 -1.0842e-19 0.499993 0.437553 0 0.450075 0.437532 -6.07153e-18
0.425113 0.254621 -1.25361e-19 0.496697 0.26485 -5.42101e-20 0.498023 0.264831 0 0.496529
0.254636 -2.30393e-19 0.49668 0.570241 0 0.499932 0.437665 -2.71051e-20 0.474991 0.437859
-2.71051e-20 0.49988 0.437372 -1.0842e-19 0.599915 0.249722 3.25261e-19 0.649874 0.43732 -5.42101e-20
0.649899 0.624872 0 0.649914 0.624883 -3.95734e-18 0.699913 0.43734 6.83047e-18 0.699894
0.249817 0 0.699869 -0.592227 0 0.624743 -0.498071 -2.71051e-20 0.624658 -0.499769
6.77626e-21 0.69979 -0.687025 0 0.699824 -0.150854 -1.03677e-18 0.599678 -0.151059 -6.77626e-21
0.605522 -0.127339 6.77626e-21 0.605681 -0.127867 0 0.599582 -0.406139 -4.40457e-20 0.699754
-0.406113 0 0.674749 -0.499634 0 0.674774 -0.18433 -4.23516e-22 0.674527 -0.163626
-4.23516e-22 0.678958 -0.165125 0 0.674537 -0.171868 4.23516e-22 0.674524 -0.14924 3.34737e-19
0.400169 -0.125737 0 0.400165 -0.12551 0 0.393854 -0.149076 -2.11758e-22 0.393877
-0.499925 -2.61564e-18 0.325088 -0.406241 0 0.325087 -0.4062 0 0.300069 -0.124901
0 0.300062 -0.218633 -3.27294e-18 0.299673 -0.218596 1.35525e-20 0.324664 -0.124851 0
0.325085 -0.126061 7.86047e-19 0.406473 -0.0785222 1.30782e-18 0.400166 -0.126118 3.38813e-21 0.41275
-0.0785648 0 0.412729 0.240678 1.0842e-18 0.500153 0.252614 -2.1684e-19 0.498317 0.252386
1.0842e-19 0.496231 0.241035 0 0.496114 0.228892 -1.35525e-20 0.496204 0.228835 6.77626e-21
0.498715 0.229819 2.71051e-20 0.500074 0.25248 0 0.499935 0.240657 -1.6263e-19 0.500957
0.264863 0 0.500154 0.264689 0 0.500951 0.437443 0 0.549896 0.437406
[...]
POINT_DATA 2021
FIELD attributes 2
p 1 2021 float
1.96618 1.40098 2.3562 4.30757 0.0454107 0.0432826 -4.22134 -6.06114 -7.7055 -6.16284 -4.32742
0.493352 0.460912 0.11227 0.325743 0.174853 0.00522173 0.0278259 0.00715652 0.014988 0.0106196
0.0156414 0.00545086 0.00975642 0.000450112 0.00426896 -0.00152089 0.00197841 -0.00144375 0.0018021 -0.000963962
0.00182803 0.000128297 0.00317051 0 0 0.621542 0.617059 0.616912 0.621261 0.642503
0.641613 0.712615 0.709496 0.934116 0.931047 1.6435 1.76703 1.78103 2.2309 2.47192
-4.09278 1.33173 -4.14609 0.64137 -0.137393 -6.05095 0.569866 0.446293 0.192377 0.0299621
0.00736866 0.00878089 0.00459837 8.69041e-05 -0.00145904 -0.000938819 -0.00104122 0.00218509 0 0.616489
0.620503 0.639217 0.70051 0.910572 1.96544 2.03557 3.12245 3.87269 7.24741 -3.45333
-1.14623 4.52628 -5.70318 -5.69488 -2.27671 0.256793 0.778985 1.03022 0.933482 0.525665
0.521602 0.805667 0.828923 0.434842 0.171413 0.0240435 0.00249199 0.00608868 0.00362955 -0.000253161
-0.00155623 -0.00090477 -0.000812877 0.00240305 0 0.615811 0.619327 0.635606 0.687897 0.870799
1.86438 2.14837 5.15823 5.60893 4.83936 32.5716 36.4763 52.0282 45.9632 4.45963
4.66838 3.26032 3.33924 2.53722 3.80436 0.800858 0.817144 0.796541 0.814451 1.41305
1.80258 1.85981 0.960734 0.465292 0.350299 0.127648 0.0122779 -0.000494859 0.0063088 0.00565214
0.00223401 0.000829507 0.00114082 0.00168931 0.00320438 0 0.614948 0.617861 0.631201 0.673101
3.28357 3.78702 4.72002 4.79208 34.5215 32.8667 44.8513 50.9888 0.810622 0.791407
0.953833 1.73235 2.6606 1.16282 0.0343268 -4.95132 -5.33017 -2.75609 -0.23959 0.187498
0.0711942 -0.0077244 -0.0121456 -0.00137103 0.000741452 -0.00128724 -0.00199967 -0.00127112 -0.000202719 0.000843807
0 0.613992 0.616254 0.626403 0.657185 0.749348 2.78184 1.76286 5.28887 3.37488
0.671779 -0.524691 0.709138 0.336344 0.327385 0.158873 -1.68814 0.709336 0.307428 -0.971477
-0.401361 0.0948831 0.0633976 -0.00445863 -0.0116674 -0.00112069 0.00149592 -0.000487206 -0.00130064 -0.000654686
0.000376603 0.00103839 0 0.61304 0.61466 0.621583 0.641096 0.685698 0.703842 0.860283
1.18029 0.350569 0.629878 0.620967 0.626255 0.665354 0.634328 0.57653 0.394217 0.070435
-0.562073 -0.383136 0.0433716 0.0579372 -0.00585109 -0.0160379 -0.00466343 -0.000971444 -0.00248662 -0.00298625
-0.00208514 -0.000852449 -4.2774e-05 0 0.61219 0.613219 0.617182 0.575888 0.614454 0.614516
0.599074 0.504621 0.436135 0.0865327 -0.432985 -0.353039 -0.00360029 0.0467566 -0.00929296 -0.0196683
-0.00676236 -0.00198605 -0.00309343 -0.00334205 -0.00227969 -0.000957413 -0.000103857 0 0.611523 0.61206
0.613653 0.504119 0.613536 0.603014 0.578653 0.46658 0.436222 0.0948691 -0.362788 -0.336299
-0.02997 0.0416906 -0.00958347 -0.0207138 -0.00752893 -0.00241645 -0.00341218 -0.00355447 -0.00241998 -0.00107876
-0.000215957 0 0.611094 0.611288 0.611319 0.607116 0.46546 0.57235 0.433957 0.0975952
-0.340465 -0.330847 -0.0382244 0.0401671 -0.00962845 -0.0211175 -0.00790526 -0.00266215 -0.00357872 -0.00364245
-0.00245825 -0.00110341 -0.000234914 -1.04661e-05 0.610944 0.61101 0.610478 0.604589 0.571837 0.453058
-10.2854 -11.1438 -11.7808 70.3494 59.8526 43.669 29.632 2.68824 1.60004 4.15243
4.72289 3.38945 3.6924 5.10271 4.45335 2.00071 1.70637 2.11995 2.51964 3.17294
2.70353 3.1506 2.17876 1.80034 5.70186 56.4706 39.6166 1.89484 2.24265 3.11122
3.79029 1.67452 -4.62268 -11.3814 -9.94427 -2.9552 8.61041 6.9932 11.8478 4.75666
17.4736 20.7702 9.13559 10.5293 2.47694 1.38502 0.869914 1.58575 19.7527 36.9492
5.64336 39.8048 20.4214 18.9168 -60.4466 -60.1853 -60.4449 68.6007 68.4969 47.6671
44.9077 3.42324 3.06382 -5.68146 -0.126444 -0.269178 -5.73194 2.55419 3.97789 3.88559
2.59608 1.53164 1.54869 1.49688 0.860484 0.618999 -1.49061 17.1048 28.269 13.443
7.34096 -59.1263 -58.7227 -62.4024 -62.2987 14.1345 19.4024 18.6529 -46.1447 -42.7126
-44.4235 -45.0955 -59.8786 -59.1061 -59.0475 -59.227 16.5527 15.7127 11.8674 -29.5524
-28.3447 -45.9306 -37.3078 -60.5159 -46.0722 -60.4164 -48.2874 10.5049 3.78942 10.1162
11.4174 8.52141 8.79207 9.0853 4.00471 10.6249 0.4283 0.245402 3.51374 3.19149
3.97961 4.17275 47.8838 68.4983 -62.4122 -59.1039 6.00373 10.628 -53.0627 -54.0332
-61.7315 4.10965 5.77019 6.07745 6.19097 -31.5583 -40.4274 -49.0446 -29.4515 64.4744
60.8394 41.708 41.4679 -44.1748 -57.4584 -11.4538 -8.17434 -0.442913 -24.1852 -42.8851
43.1326 44.4744 64.5103 66.6708 -54.1018 -51.9276 -52.5186 0.0777522 -9.7127 -12.9963
-11.9718 -22.1758 -25.5385 -61.2753 44.1282 21.9041 22.2106 11.7298 12.039 12.2353
13.1809 22.0987 44.6373 10.8593 12.5234 11.9552 13.293 -61.1537 -61.0941 -60.1192
-60.1042 -60.1246 -59.6805 -59.3288 45.8989 66.9162 -60.8574 -60.649 -61.2342 -60.7776
-28.362 -33.6172 -31.0547 -11.8263 -0.817935 -4.18237 -50.6063 -50.3537 -59.9728 -11.0923
0.991784 0.840503 -11.3833 -60.4409 -58.2773 -51.3377 -10.3538 -8.07624 -2.03555 2.61184
-7.23129 -5.83291 -17.724 -37.4166 -40.9643 -35.9988 -52.7671 -54.0839 -53.638 -4.44409
-16.7251 -17.5592 -5.13445 -57.7492 -52.4522 -57.7994 -3.63611 -8.79249 -15.5656 -9.40152
67.7116 47.0182 -55.2483 -55.6672 -58.8614 -58.5677 -57.8453 -54.4695 -59.3643 -53.8572
-57.5416 -60.9891 -61.1359 -61.2109 -31.2709 -76.1032 -95.1752 -100.008 -101.813 -101.35
-47.4605 -50.8679 -55.2019 -48.9255 -51.1822 -99.6854 -100.773 -72.2175 -35.1719 -60.3524
-61.0902 -60.9136 -58.2217 -59.1916 -59.5567 -59.4145 -59.7722 7.20131 6.58161 9.23807
-57.5079 -57.4318 -57.6473 -56.8381 -56.9884 -57.2912 -57.6487 -56.1481 -56.1411 1.36957
1.08597 -0.0889838 0.515127 3.1926 3.69062 0.704656 -57.3229 -57.9349 -58.4476 5.57534
6.36971 2.42408 0.517921 2.89035 -29.1785 -35.6518 -34.6951 -28.4817 -56.3173 -57.0988
-61.0421 -60.3977 -56.0758 -57.2479 -36.4993 -41.0336 -41.1391 -34.8319 -47.1868 -51.4379
-53.4922 -53.5607 -52.4787 123.913 131.776 147.049 147.136 -60.1091 -58.6008 -59.0905
-59.9344 -60.0893 5.9926 4.03941 5.17766 6.54578 -8.80433 -3.64566 -5.46956 -7.97212
-10.5465 -36.1272 -34.7637 -23.5784 -24.7262 -29.3493 -36.0759 -21.3327 -21.7421 31.4147
41.6311 52.4483 38.1505 23.2385 19.9634 34.7345 26.6436 0.744917 0.904896 2.04608
33.8387 24.7117 16.6607 21.6102 2.22238 3.25402 3.82949 3.87478 2.58876 5.45627
5.54849 3.44377 -9.00548 -7.79363 -1.23629 -10.0016 14.7834 9.21286 10.8906 -56.538
-59.9583 -60.1153 -56.7888 -82.358 -81.1032 -84.2822 -47.9817 -12.0462 -17.934 -26.757
-57.2643 -53.8474 -56.5252 -57.7749 -75.1617 -74.8531 -59.9241 -61.0155 -49.7679 -48.5154
-51.6986 -50.977 3.01275 3.07282 -1.33537 5.67185 5.29884 4.21456 4.89698 5.53901
5.82765 -56.6291 -55.2667 -68.7163 -67.959 78.8919 93.9212 85.4894 112.03 106.306
88.779 90.126 161.845 164.139 153.289 121.612 98.4201 104.393 97.2995 117.606
-12.2313 -26.1434 -30.0838 -5.2188 -25.4808 -53.037 -41.8425 -5.73698 94.0796 101.559
87.0907 78.5648 96.9581 88.6695 107.922 148.694 158.406 167.574 165.312 106.846
103.139 159.83 -33.1084 -7.8573 -38.5033 -29.3383 -49.8646 140.35 140.207 115.738
110.731 110.346 115.621 139.712 139.083 108.206 167.271 170.849 172.083 172.352
173.823 186.743 186.922 174.921 173.38 -31.0104 -38.8819 -30.9032 -57.8947 -50.7709
-41.0069 -40.034 -38.5846 -23.5139 3.97333 -0.770832 1.49418 173.503 175.446 187.281
172.494 186.61 187.244 175.342 172.324 179.737 181.888 170.265 169.036 180.054
168.049 171.255 182.56 -53.2518 -36.7088 -35.4077 -57.2428 -57.3156 -57.2938 -34.867
-45.2703 -34.6984 -34.8285 -44.7425 -44.741 -3.30978 -8.57723 -23.5623 -23.4609 -30.8496
-42.0018 -30.548 -30.0778 -41.4068 -18.5104 -15.7499 -17.8484 115.58 140.291 138.31
139.209 114.859 109.496 170.192 170.071 170.638 167.911 136.603 108.603 113.775
137.346 -59.6768 -55.7354 -53.2244 -53.1401 -57.1989 -44.7593 89.7732 92.9231 78.0644
-14.3587 -5.65303 -5.2337 -19.1995 55.1337 57.1056 70.7757 74.2051 -57.5229 -56.7688
-57.1294 -57.5886 -58.8851 -59.1124 -59.35 -59.4406 -58.3814 -58.29 -57.7321 -58.1276
-132.551 -106.771 -75.9581 -94.7574 -97.0647 -98.5586 -98.5464 -82.9231 -80.1139 -93.7795
-72.6839 -88.1162 -136.167 -139.558 -131.118 -97.4698 -98.274 -56.9825 -56.2569 -56.8359
-58.291 -58.5285 -55.9497 -55.7365 7.96897 8.79434 13.9615 16.8916 13.9943 -50.9153
-49.9306 -44.2964 -44.7754 -45.2192 -44.9552 -44.9272 -44.7723 12.2791 11.941 16.1327
7.35279 7.05334 8.72367 9.25763 9.32131 7.73764 6.51759 7.23565 11.5914 14.8148
12.8798 0.403666 -1.22754 -3.12052 6.20874 5.26922 4.16248 5.58687 6.32996 -52.7166
-53.3162 -57.2006 -56.7811 -47.9409 -48.72 13.8684 16.1002 17.6319 -46.0767 -49.3727
-49.5193 -45.6521 -44.7594 10.6067 10.3491 10.3907 8.88192 6.18447 -7.30611 -6.10007
4.80885 5.38565 5.31903 -47.787 -47.7871 146.235 148.245 140.599 136.708 112.817
117.969 125.396 120.72 184.645 185.916 182.208 178.454 -58.1766 -58.1979 -55.15
-54.9855 169.793 183.486 185.171 173.137 174.583 186.674 171.183 182.275 169.788
179.431 -15.4124 -17.2786 -21.5308 -24.9988 -23.8593 -20.4333 -5.631 -0.712246 -1.42195
-6.23104 -10.9159 -10.2098 -1.13017 -9.13659 -10.0095 -15.2082 -18.2682 -8.56003 -9.2273
-25.1505 -20.4954 -9.62314 -0.677751 -3.01996 5.90426 -2.90722 5.88829 6.7576 2.63084
3.23772 3.98252 3.66649 7.42574 5.76689 3.74265 5.5949 -18.9033 -15.7633 -26.2611
-21.1805 -58.2166 -59.7667 -60.4614 -60.4581 2.79679 2.90659 4.98654 5.38944 4.26933
4.85283 -15.0562 -40.9456 -57.9184 -66.1961 -54.0123 -32.5933 -60.7498 10.6615 10.1008
10.1259 -3.24214 -0.353364 11.363 16.6006 8.69934 24.016 20.7201 10.3037 1.23687
6.30878 7.77179 12.4163 10.8275 5.88817 -54.428 -44.6984 -50.0544 -12.4253 -43.2445
-24.1557 -59.9081 -82.9528 108.113 92.103 105.791 107.805 112.327 111.34 172.988
172.113 173.363 172.689 171.373 186.034 186.035 185.268 -60.5002 -60.7479 174.637
-58.6008 -58.5963 -59.1693 -59.2822 -59.0553 -57.6032 -153.487 -140.173 -140.048 -136.882
-161.259 -139.944 -135.357 -135.681 -121.802 -117.115 -82.2432 -74.1349 -74.5999 -71.9904
-121.266 -123.239 -58.9601 -58.0386 -57.1182 -59.1846 10.4886 7.8554 10.8572 8.19496
11.1727 12.322 12.7142 13.8707 14.6649 -56.4054 -55.4227 -57.7067 -56.1541 -53.5024
-53.2725 -53.2722 -55.8229 -6.35174 -0.956945 -1.89723 -5.09798 8.69192 8.88682 6.23203
5.39692 6.88618 8.91533 8.27366 6.05203 0.804123 7.27275 6.04321 5.98017 8.59709
10.5852 9.29743 12.3415 11.5878 -55.7475 -56.4677 -56.824 -56.9573 -57.0167 -56.7446
-56.2594 -53.8721 -55.4555 -55.4658 -55.4756 -51.4749 -52.6124 -73.4348 -72.656 -57.4038
-59.692 -77.3498 -68.3874 -75.7282 -121.898 -126.288 -133.895 -79.1928 -96.9873 -106.185
-80.1097 -98.2856 128.489 113.304 148.257 151.513 -56.855 -55.9535 -57.2403 -57.266
-55.1939 144.082 168.043 146.328 -48.6499 -47.6655 -48.2673 -49.2066 -49.1994 -49.2215
-49.1289 -47.0018 -7.59889 -8.85115 -10.7542 -9.93152 -13.3782 -15.2999 -17.1683 -15.2367
-16.0427 75.1133 85.8918 -57.8589 51.6439 76.9142 65.3067 74.9642 60.4631 12.6994
9.57038 44.8991 35.9471 7.26067 8.17826 2.83124 4.46767 4.21467 6.60459 5.65316
6.13444 6.54069 7.14933 -53.152 -52.6591 -52.3685 -53.1165 -1.56941 -1.17324 -1.69855
1.63857 5.10504 4.49739 6.60347 5.96494 -51.2343 -51.5559 -51.1818 138.004 136.032
171.277 184.832 189.115 189.402 186.913 185.391 -58.7122 -58.34 -58.6275 -58.2055
-55.3996 -44.6979 -45.6323 -46.2397 -45.3236 -45.7045 -47.209 -57.8763 -57.8937 -58.4929
-59.5006 -59.2084 -59.1818 -59.408 -58.9755 -56.9901 -114.436 -110.368 -138.315 -114.8
-136.941 -124.578 -126.096 -136.357 -57.9477 -59.6553 -57.8323 -56.3379 14.5076 12.9633
12.1157 13.4484 13.2049 13.9561 -33.864 -33.245 -27.868 -27.3724 -39.3898 -39.776
-44.7075 -44.3908 -50.8233 -50.8691 -43.4836 -52.3148 -51.8367 -6.48673 -1.40474 -11.581
0.472553 1.86799 7.43036 6.96613 7.28565 3.91486 9.99891 6.75135 8.12147 9.4047
10.1211 10.0072 10.1295 11.9336 11.6314 2.11142 11.6241 13.9759 15.1032 2.75507
2.21059 1.91486 2.67039 -59.2411 -58.5561 -51.3985 -57.4148 -41.5262 -41.3384 -36.8074
-41.7138 -42.9069 -47.8821 -49.2926 -47.9049 -47.6501 -47.8795 -45.3072 -51.9327 -46.4511
3.14531 -46.1598 -47.1166 140.671 131.416 129.136 128.989 129.372 113.777 106.302
188.697 188.191 187.175 -52.3954 -52.7485 1.52472 2.08549 2.98124 -25.9162 -26.9588
186.179 187.007 180.516 183.468 182.029 181.665 -30.2497 -26.0938 -0.150443 -4.34798
-2.71065 -0.110671 -20.7746 -9.71039 -6.73651 -9.58519 -15.9509 -4.6237 80.7936 56.539
61.0588 21.1043 21.5185 68.1152 110.829 10.0544 6.93669 -2.85033 -3.15229 6.63287
7.39732 7.63733 5.95782 6.37325 24.855 16.7313 0.227407 20.2535 -2.3599 2.91243
7.7293 7.62663 68.1839 110.378 -56.3065 -58.2203 18.588 90.6107 108.418 100.898
93.1245 108.611 109.64 126.954 134.69 143.514 -58.5441 80.4976 72.3608 49.0881
13.7144 19.543 17.6986 -73.6951 -59.0228 -59.0169 -59.0187 -56.6401 -56.6035 -61.2467
-56.7278 -60.9327 -61.7185 23.6853 -7.25962 5.42009 10.14 10.4361 -2.17544 -2.26051
-3.48046 -57.2535 -55.4656 -1.60937 2.0255 2.26878 -58.9494 -58.3453 -57.337 7.90637
7.52538 3.93201 -57.9729 42.0161 48.3494 -69.1761 -61.4164 15.855 13.5235 8.20364
6.20598 4.3001 7.65911 6.18404 -55.0488 -55.1062 -53.3646 -53.1444 -58.0017 -52.8157
-52.088 -56.079 -56.3696 -56.3403 -55.873 -56.9434 -56.5256 -56.3745 -56.1256 3.7732
-52.0799 -57.8955 -57.0275 100.38 128.894 144.552 154.981 168.001 162.774 160.583
148.618 188.276 -54.8104 -55.909 -52.3472 -5.21093 -8.02557 -0.874623 -49.588 -49.4947
-49.8334 -50.1842 -53.7393 -46.4909 -48.2781 -46.8757 -46.231 -47.0564 28.5499 20.0741
-110.475 -118.012 -117.856 -118.434 -118.747 -75.0003 -97.792 -75.0031 13.9139 17.6306
-11.1334 11.3053 10.7124 -5.56994 -7.16868 3.38863 1.6569 0.323135 -0.32893 -1.73585
-3.06372 -1.72867 3.22463 3.46596 -0.736699 1.80276 3.47067 1.37632 0.167916 13.9001
18.3339 -49.7995 4.8404 12.0301 7.88435 15.6155 7.91248 10.4393 13.4028 15.1627
3.77607 3.9789 5.80489 5.27082 -2.93147 -4.94302 -7.33842 -7.23687 4.15321 1.4381
4.03938 8.99264 14.8049 15.961 7.7535 5.26643 2.68441 2.37951 6.67781 9.9719
10.5855 11.2667 10.4611 5.30418 -3.91659 5.18053 -3.20301 2.90741 -3.92091 2.09656
10.5947 7.89322 12.0195 6.3452 9.02835 11.068 10.4298 10.1153 7.32818 8.08486
8.64101 8.92206 7.3092 6.83625 6.79014 5.34827 -6.66974 -10.2548 -8.28451 5.73998
5.11238 7.37185 5.55097 -10.1952 -11.8923 0.606735 6.61789 5.49549 -2.14976 5.27682
-140.296 -140.724 -140.934 10.6963 -57.3145 -55.4639 -55.4782 4.56672 9.07896 4.80366
7.88832 11.2857 -57.4717 -57.3916 -56.3444 -55.5743 -60.9965 -60.3574 -60.7088 -68.872
-114.639 -117.976 -112.295 -118.539 -48.7994 -49.4532 -46.703 -46.3534 -46.7018 -46.3208
-13.1094 -13.1296 -15.3018 -53.0022 -52.7659 -52.435 4.48792 0.814416 4.44849 4.35183
-52.1762 -52.7347 -52.9471 141.388 150.826 -58.0156 -52.3836 13.9531 14.8186 10.7361
6.61735 10.736 17.7939 4.12399 3.26246 4.47601 3.65523 -53.9523 -58.7988 -58.5232
-56.9047 7.28908 14.5957 10.4966 3.59699 3.75601 9.64515 8.26605 8.94178 8.06362
9.83873 11.9492 9.69301 5.32411 8.22137 7.823 -55.5357 -50.2732 -47.9552 91.8239
81.0598 84.854 67.7085 73.5912 -5.3582 -3.39287 -0.146508 -2.03711 7.44197 7.96956
7.51335 7.98474 7.83008 7.31615 6.75398 117.247 107.163 95.1388 -74.9298 -58.8108
-57.6578 -56.4146 -56.3804 -55.936 -55.9841 163.615 139.929 162.035 162.155 9.29058
6.67277 11.8681 12.67 6.98863 8.3302 7.26522 6.61911 5.91925 2.35671 -2.99813
4.66014 5.29552 5.84855 3.88897 6.33355 14.1955 8.54416 -14.1271 14.979 13.4496
6.78541 9.99116 15.836 8.89159 -14.1201 -14.9653 -13.1249 -3.70233 -5.92294 -14.4892
6.74722 4.85692 -15.9406 -17.5046 6.65403 3.92449 -1.94641 -4.1993 -56.6129 -44.9704
14.1578 1.42199 -0.274147 -0.662469 5.70109 5.26502 6.22414 5.75729 5.70941 5.28291
-0.205556 5.79576 6.43207 -0.948392 5.26966 4.24814 6.78609 6.26779 5.67497 106.822
87.4863 122.472 124.28 4.53839 4.25411 2.75919 -56.841 4.46373 5.50795 5.26362
-10.3453 -13.335 -0.795115 5.80104 6.25927 5.15848 8.17666 4.78996 6.94463 3.31729
35.5324 -53.6607 -56.7754 -56.3079 -56.2616 -56.3376 -3.28094 -4.66901 -13.727 -13.5945
-13.6159 -3.81138 8.74493 2.73085 5.41257 6.19966 1.86269 1.76478 -0.535511 -1.37493
-12.2517 -6.42104 -5.21215 -12.5512 -5.20999 -13.4097 4.91379 -12.2835 -13.5517 -3.16086
0.741722 6.13376 6.16104 5.53874 8.32185 -0.271577 6.2631 -3.68938 -1.6231 3.99343
-1.28305 6.68563 4.27849 -10.6411 8.54425 -1.1569 5.87553 0.664013 1.07768 4.5732
4.90852 4.03577 4.75542 2.69836 7.29728 8.43255 4.86508 5.48789 0.542229 2.95682
10.6806 5.43503 0.204402 -1.03638 2.96665 173.101 176.958 176.269 181.166 169.295
168.271 172.843 179.954 180.955 68.2187 72.4949 53.4586 -58.5016 -39.3616 -36.1142
-33.9972 -27.4237 -41.2156 -52.8864 -52.2886 -56.2862 -45.1084 100.451 154.728 162.324
155.475 147.297 -59.4884 -59.1482 -59.3737 -59.2377 -58.5087 -59.213 -57.3888 -57.6642
-57.5159 6.18966 2.13457 171.387 -14.8286 186.103 190.323 189.486 -51.41 -46.5854
182.888 186.017 186.18 -15.1886 -51.6027 85.6957 -56.674 -56.8217 -57.1237 -57.0744
-47.8865 189.428 0.247916 189.604 185.64 189.198 7.27581 -63.8823 110.017 109.329
-58.1409 3.83442 -53.5424 -55.0877 -53.6963 -141.214 139.1 -56.4988 159.003 -53.8616
-118.824 -118.744 73.2244 6.66846 2.15838 168.268 164.887 -15.0963 139.969 191.186
190.092 185.525 189.486 190.881 189.881 172.923 191.247 186.884 190.047 191.281
0.621558 0.617065 0.642493 0.711745 0.925128 1.6242 2.2021 -4.02127 1.31933 0.0110015
-4.11664 -5.88748 0.406184 0.0911945 0.000488366 0.0071091 0.0113959 0.00626245 0.00112683 -0.00100424
-0.00106153 -0.000666125 0.000347338 0.000407116 -55.4546 -53.4185 -131.664 -132.224 -47.4584 -48.0656
-49.0893 -47.2793 -47.9231 -48.9811 -49.8596 -46.66 -96.3149 -75.7638 -48.6254 -46.4029
-75.2178 -48.5231 -51.8631 -52.4704 -51.1115 -99.0564 -110.2 -127.339 -117.974 -117.798

U 3 2021 float
20.0087 -0.0504217 -0.215457 20.0465 -0.0348906 -0.0738456 19.9299 -0.00911244 -0.096991 19.9382 -0.0613704
-0.607877 20.0168 -0.0641463 0.0403287 20.0171 -0.0640405 0.0403515 20.1685 -0.0841339 0.0584717
20.2338 -0.0927889 0.0667862 20.2797 -0.0982183 0.154074 20.2867 -0.123034 0.270023 20.2062
-0.124115 0.214078 19.9566 -0.0508619 0.0205266 19.9968 -0.0587842 0.018697 20.0041 -0.0568492
0.00728954 19.86 -0.0265618 0.0190341 19.8588 -0.023096 0.0154443 20.0065 -0.0564451 0.00230558
19.8614 -0.02149 0.0109267 20.0051 -0.0555012 0.00101766 19.8604 -0.0197086 0.0100871 20.0034
-0.0545108 0.000531521 19.8591 -0.0180007 0.00981499 20.002 -0.0535627 0.000275656 19.8579 -0.0165023
0.0095983 20.0006 -0.0526989 0.000108071 19.8569 -0.0151944 0.00940452 19.999 -0.0518728 -1.6165e-05
19.8558 -0.0140099 0.00923804 19.9974 -0.0510693 -0.000127081 19.8547 -0.012944 0.00904218 19.9959
-0.0502829 -0.000182648 19.8536 -0.0119556 0.00895994 19.994 -0.0494683 -0.000302451 19.8526 -0.0109394
0.00868933 19.8521 -0.0104308 0.0083831 19.9936 -0.0491861 -0.000374629 19.9996 -0.000388653 3.09446e-05
20 0 0 20 0 0 19.9996 -0.000387444 7.7535e-05 19.9983
-0.000902885 9.38111e-05 19.9983 -0.00091119 0.000277246 19.9942 -0.00177289 0.00036688 19.9941 -0.00172803
0.000999254 19.9787 -0.00325789 0.000331143 19.9794 -0.00358749 0.00357173 19.9467 -0.00694888 -0.00917341
19.9363 -0.00752357 -0.0083713 19.939 0.000644991 -0.0145932 19.9284 -0.00743551 -0.0298253 19.9065
0.0031567 -0.0617669 20.2363 -0.0789631 0.00294527 20.0511 -0.0329894 -0.0565012 20.2385 -0.0781373
0.0065239 19.9308 -0.0942474 0.033703 20.0223 -0.124743 0.085654 20.2335 -0.0927545 0.0662454
19.8618 -0.0321681 0.0248413 19.3057 0.130622 0.0137825 19.3381 0.127422 0.0145895 19.3672
0.121108 0.0143389 19.3893 0.116394 0.0148604 19.4086 0.112178 0.0152403 19.4264 0.108173
0.0153161 19.443 0.104378 0.0152438 19.4585 0.100803 0.0151099 19.4733 0.0973901 0.0149074
19.4868 0.0941762 0.0147428 19.5023 0.0909743 0.0144149 19.5116 0.0892865 0.014125 20
0 0 19.9996 -0.000386891 0.000135779 19.9985 -0.000906778 0.000487835 19.9945 -0.00172448
0.00171768 19.9799 -0.00370052 0.00602416 19.9192 -0.00991248 0.0103092 19.9191 -0.00915083 0.000415155
19.8504 -0.019072 -0.0969789 19.7933 -0.0228831 -0.0695448 19.9592 -0.057946 -1.02553 20.4422
-0.0788211 -0.927115 20.2216 -0.0628199 -0.505404 19.9331 -0.0614409 -0.637439 20.3014 -0.171057
0.461956 20.3017 -0.171947 0.465462 20.0949 -0.260086 0.599741 19.99 -0.24961 0.315414