# vtk DataFile Version 2.0
tracks
ASCII
DATASET POLYDATA
POINTS 2590 float
-1.001 -0.05 0.0011 -0.900789 -0.0500215 0.00109731 -0.800577 -0.050043 0.00109463 -0.700366 -0.0500644
0.00109196 -0.600155 -0.0500858 0.00108929 -0.499943 -0.0501071 0.00108663 -0.424945 -0.0501111 0.00107895
-0.349947 -0.0501519 0.00106884 -0.274949 -0.0501924 0.00105883 -0.19995 -0.0502325 0.00104892 -0.124952
-0.0502722 0.0010391 -0.0499538 -0.0502816 0.00103934 0.0250446 -0.0502904 0.00104809 0.100043 -0.0502992
0.00105691 0.175041 -0.0503081 0.0010658 0.25004 -0.0503171 0.00107477 0.400037 -0.050311 0.00109086
0.550035 -0.050309 0.0011051 0.700032 -0.0503071 0.00111952 0.85003 -0.0503051 0.00113412 1.00003
-0.0503031 0.00114892 1.15003 -0.0503137 0.00115613 1.30002 -0.0503193 0.00116061 1.45002 -0.0503249
0.00116511 1.60002 -0.0503306 0.00116963 1.75002 -0.0503362 0.00117417 1.90002 -0.0503448 0.00117704
2.05002 -0.0503512 0.00117897 2.20001 -0.0503576 0.00118091 2.35001 -0.050364 0.00118286 2.50001
-0.0503704 0.0011848 2.65001 -0.0503784 0.00118585 2.80001 -0.0503864 0.00118655 2.95001 -0.0503943
0.00118724 3.10001 -0.0504024 0.00118794 3.25001 -0.0504104 0.00118863 3.40001 -0.0504182 0.00118891
3.55001 -0.0504269 0.0011895 3.70001 -0.0504357 0.00119008 3.85001 -0.0504444 0.00119066 4.00001
-0.0504532 0.00119124 4.15 -0.0504609 0.00119132 4.3 -0.0504704 0.00119199 4.45 -0.0504799
0.00119267 4.6 -0.0504895 0.00119334 4.75 -0.050499 0.00119402 4.9 -0.0505066 0.00119402
5.05 -0.0505166 0.00119485 5.2 -0.0505266 0.00119569 5.35 -0.0505366 0.00119653 5.5
-0.0505467 0.00119736 5.65 -0.0505542 0.00119732 5.8 -0.0505645 0.00119831 5.95 -0.0505749
0.00119931 6.1 -0.0505852 0.0012003 6.25 -0.0505955 0.0012013 6.4 -0.050603 0.00120123
6.55 -0.0506135 0.00120236 6.7 -0.0506241 0.00120349 6.85 -0.0506346 0.00120462 7
-0.0506452 0.00120575 7.15 -0.0506526 0.00120567 7.3 -0.0506633 0.0012069 7.45 -0.050674
0.00120814 7.6 -0.0506847 0.00120938 7.75 -0.0506954 0.00121062 7.9 -0.0507027 0.00121052
8.05 -0.0507135 0.00121184 8.2 -0.0507243 0.00121317 8.35 -0.0507352 0.0012145 8.5
-0.050746 0.00121583 8.65 -0.0507533 0.00121572 8.8 -0.0507641 0.00121712 8.95 -0.050775
0.00121853 9.1 -0.0507859 0.00121994 9.25 -0.0507969 0.00122134 9.4 -0.050804 0.00122122
9.55 -0.0508609 0.00122334 9.7 -0.050969 0.00122621 9.85 -0.0511282 0.00122981 10
-0.0513385 0.00123415 -1.001 -0.05 0.0537316 -0.900807 -0.0501058 0.0535764 -0.800614 -0.0502118
0.053394 -0.700421 -0.0503413 0.0531779 -0.600229 -0.0505017 0.0529263 -0.500035 -0.0506929 0.0526393
-0.425004 -0.0509403 0.0524172 -0.349973 -0.051277 0.0521283 -0.274943 -0.051661 0.0518604 -0.199912
-0.0520786 0.0516349 -0.124879 -0.0524806 0.0514917 -0.0498864 -0.0527464 0.0515291 0.0251065 -0.052966
0.0516951 0.100099 -0.0531808 0.0519296 0.175092 -0.0534049 0.0522122 0.250087 -0.0536241 0.0525299
0.400077 -0.054009 0.0531657 0.550067 -0.0543917 0.0536809 0.700057 -0.0547331 0.0541474 0.850047
-0.0550333 0.0545647 1.00003 -0.0553002 0.0549325 1.14694 -0.0556678 0.0552111 1.29384 -0.0560038
0.055471 1.44074 -0.0563371 0.0556972 1.58764 -0.0566678 0.0558897 1.70505 -0.0569301 0.0560165
1.71404 -0.0569509 0.0560249 1.72304 -0.0569719 0.0560332 1.73203 -0.0569929 0.0560414 1.74102
-0.0570141 0.0560495 1.75002 -0.0570353 0.0560576 1.90002 -0.0573915 0.056191 2.05002 -0.0577432
0.056307 2.20001 -0.0580911 0.0564055 2.35001 -0.0584352 0.0564863 2.50001 -0.0587753 0.0565494
2.65001 -0.0591208 0.0566014 2.80001 -0.0594658 0.0566467 2.95001 -0.05981 0.0566843 3.10001
-0.0601533 0.0567143 3.25001 -0.0604958 0.0567365 3.40001 -0.0608395 0.0567537 3.55001 -0.0611844
0.0567701 3.70001 -0.0615278 0.0567845 3.85001 -0.0618697 0.0567969 4.00001 -0.0622101 0.0568072
4.15 -0.0625485 0.0568151 4.3 -0.0628906 0.0568241 4.45 -0.0632311 0.0568322 4.6
-0.0635702 0.0568396 4.75 -0.0639079 0.0568463 4.9 -0.0642408 0.0568507 5.05 -0.064579
0.056857 5.2 -0.0649158 0.0568629 5.35 -0.0652512 0.0568684 5.5 -0.0655853 0.0568736
5.65 -0.0659128 0.0568762 5.8 -0.0662466 0.0568813 5.95 -0.0665792 0.0568862 6.1
-0.0669105 0.0568908 6.25 -0.0672406 0.0568952 6.4 -0.0675629 0.0568966 6.55 -0.0678922
0.0569011 6.7 -0.0682203 0.0569054 6.85 -0.0685472 0.0569095 7 -0.068873 0.0569135
7.15 -0.0691901 0.0569142 7.3 -0.0695148 0.0569182 7.45 -0.0698384 0.0569221 7.6
-0.0701608 0.0569259 7.75 -0.070482 0.0569296 7.9 -0.0707941 0.0569298 8.05 -0.0711141
0.0569336 8.2 -0.071433 0.0569373 8.35 -0.0717507 0.0569411 8.5 -0.0720673 0.0569448
8.65 -0.0723744 0.0569449 8.8 -0.0726897 0.0569487 8.95 -0.0730039 0.0569524 9.1
-0.0733168 0.0569559 9.25 -0.0736287 0.0569594 9.4 -0.0739306 0.056959 9.55 -0.0742415
0.0569626 9.7 -0.0745519 0.0569661 9.85 -0.0748617 0.0569696 10 -0.0751711 0.0569731
-1.001 -0.05 0.106363 -0.900818 -0.0500777 0.106138 -0.800636 -0.0501532 0.105865 -0.700455
-0.0502553 0.105546 -0.600274 -0.0504275 0.105005 -0.50009 -0.0506695 0.104243 -0.424996 -0.0509559
0.103658 -0.349901 -0.0513035 0.103054 -0.274807 -0.0516555 0.102518 -0.199711 -0.0519529 0.10209
-0.124607 -0.0522944 0.101989 -0.0496046 -0.0525418 0.102103 0.0253975 -0.0527342 0.102333 0.100399
-0.0529137 0.102646 0.175401 -0.0531136 0.103043 0.250411 -0.0533335 0.103525 0.400346 -0.0537386
0.104525 0.550283 -0.0541423 0.105397 0.70022 -0.0545072 0.106181 0.850157 -0.0548416 0.106799
1.00009 -0.0551451 0.10725 1.15007 -0.0555845 0.107515 1.30006 -0.0558797 0.107812 1.45005
-0.0561241 0.108088 1.60003 -0.0563626 0.108332 1.75002 -0.0565951 0.108543 1.90002 -0.0569019
0.108688 2.05002 -0.057145 0.108843 2.20001 -0.0573823 0.108982 2.35001 -0.0576171 0.109104
2.50001 -0.0578493 0.109209 2.65001 -0.0581384 0.109278 2.80001 -0.0583851 0.109346 2.95001
-0.0586306 0.109406 3.10001 -0.0588753 0.109459 3.25001 -0.0591194 0.109504 3.40001 -0.0594068
0.109539 3.55001 -0.0596575 0.109572 3.70001 -0.0599063 0.109603 3.85001 -0.0601535 0.109633
4 -0.0603991 0.10966 4.15 -0.0606805 0.109686 4.3 -0.0609312 0.109707 4.45
-0.0611801 0.109728 4.6 -0.0614274 0.109748 4.75 -0.0616731 0.109767 4.9 -0.0619481
0.10979 5.05 -0.0621969 0.109805 5.2 -0.062444 0.10982 5.35 -0.0626898 0.109834
5.5 -0.0629341 0.109848 5.65 -0.0632027 0.109869 5.8 -0.063449 0.10988 5.95
-0.0636938 0.109891 6.1 -0.0639373 0.109901 6.25 -0.0641796 0.109911 6.4 -0.0644422
0.109931 6.55 -0.0646857 0.109939 6.7 -0.0649277 0.109946 6.85 -0.0651686 0.109954
7 -0.0654083 0.109961 7.15 -0.065665 0.10998 7.3 -0.0659054 0.109985 7.45
-0.0661445 0.109991 7.6 -0.0663823 0.109996 7.75 -0.066619 0.110001 7.9 -0.0668702
0.110019 8.05 -0.0671073 0.110023 8.2 -0.0673431 0.110026 8.35 -0.0675778 0.11003
8.5 -0.0678114 0.110034 8.65 -0.068057 0.110051 8.8 -0.0682906 0.110054 8.95
-0.0685229 0.110056 9.1 -0.0687541 0.110059 9.25 -0.0689841 0.110061 9.4 -0.0692241
0.110077 9.55 -0.0694545 0.110079 9.7 -0.0696842 0.11008 9.85 -0.0699135 0.11008
10 -0.0701422 0.110081 -1.001 -0.05 0.158995 -0.900796 -0.0500883 0.15877 -0.800593
-0.0501923 0.158424 -0.700392 -0.0503536 0.157688 -0.600196 -0.0505848 0.156475 -0.499992 -0.0508778
0.154635 -0.42472 -0.0514844 0.153034 -0.349437 -0.0519509 0.152115 -0.274149 -0.0523467 0.151554
-0.19886 -0.0527404 0.151263 -0.123699 -0.0530565 0.151318 -0.0487805 -0.0531785 0.151483 0.0261372
-0.0532555 0.151964 0.101053 -0.0533935 0.152669 0.175968 -0.0535584 0.153467 0.250944 -0.0537105
0.154295 0.400784 -0.0539187 0.155716 0.550625 -0.0544224 0.156893 0.700468 -0.0548919 0.157648
0.850313 -0.0552878 0.158247 1.00014 -0.0556528 0.158678 1.15012 -0.0561544 0.158924 1.30009
-0.0565113 0.159202 1.45007 -0.0567752 0.159471 1.60005 -0.0569625 0.159726 1.75002 -0.0571439
0.159948 1.90002 -0.0574007 0.160103 2.05002 -0.0575933 0.160269 2.20002 -0.0577737 0.160421
2.35001 -0.0579454 0.160558 2.50001 -0.0581146 0.160678 2.65001 -0.0583411 0.160762 2.80001
-0.0585251 0.160844 2.95001 -0.0587068 0.160919 3.10001 -0.0588869 0.160988 3.25001 -0.0590664
0.161048 3.40001 -0.0592892 0.161099 3.55001 -0.0594754 0.161148 3.70001 -0.0596589 0.161195
3.85001 -0.0598401 0.161242 4 -0.0600198 0.161285 4.15 -0.060235 0.161328 4.3
-0.0604199 0.161366 4.45 -0.0606021 0.161404 4.6 -0.0607822 0.16144 4.75 -0.0609608
0.161477 4.9 -0.0611682 0.161516 5.05 -0.0613499 0.161549 5.2 -0.0615293 0.161581
5.35 -0.0617067 0.161612 5.5 -0.0618829 0.161644 5.65 -0.0620829 0.161682 5.8
-0.062261 0.16171 5.95 -0.0624371 0.161738 6.1 -0.0626116 0.161766 6.25 -0.0627849
0.161793 6.4 -0.062978 0.16183 6.55 -0.0631524 0.161855 6.7 -0.063325 0.16188
6.85 -0.0634961 0.161904 7 -0.063666 0.161929 7.15 -0.0638526 0.161965 7.3
-0.0640232 0.161987 7.45 -0.0641921 0.16201 7.6 -0.0643597 0.162032 7.75 -0.064526
0.162054 7.9 -0.0647063 0.162089 8.05 -0.0648731 0.16211 8.2 -0.0650383 0.162131
8.35 -0.0652022 0.162151 8.5 -0.065365 0.162172 8.65 -0.0655394 0.162206 8.8
-0.0657022 0.162226 8.95 -0.0658634 0.162245 9.1 -0.0660233 0.162264 9.25 -0.066182
0.162283 9.4 -0.0663502 0.162316 9.55 -0.0665092 0.162334 9.7 -0.0666674 0.162352
9.85 -0.0668248 0.162369 10 -0.0669817 0.162386 -1.001 -0.05 0.211626 -0.94763
-0.0500804 0.211469 -0.894259 -0.0501654 0.211279 -0.840889 -0.0502549 0.211054 -0.78752 -0.0503889
0.210764 -0.724301 -0.0506323 0.210285 -0.679426 -0.0509096 0.209635 -0.634556 -0.0512443 0.208756
-0.589689 -0.0515828 0.207741 -0.544825 -0.0519263 0.206588 -0.499928 -0.0522761 0.205295 -0.469418
-0.0525701 0.204242 -0.43891 -0.0528742 0.203125 -0.408397 -0.0531627 0.202136 -0.37788 -0.0534368
0.201269 -0.329533 -0.0538557 0.200029 -0.288586 -0.0541945 0.199125 -0.247636 -0.0545332 0.198437
-0.206681 -0.0548759 0.198062 -0.165725 -0.0551831 0.197974 -0.124885 -0.0554156 0.198149 -0.0496128
-0.0557198 0.198863 0.0256569 -0.0558551 0.199815 0.100922 -0.0559624 0.201097 0.176185 -0.056103
0.202457 0.251487 -0.0562368 0.203611 0.251579 -0.056237 0.203612 0.251671 -0.0562371 0.203613
0.251763 -0.0562372 0.203614 0.251855 -0.0562374 0.203615 0.251947 -0.0562375 0.203617 0.326612
-0.0563492 0.204595 0.401278 -0.0564628 0.205447 0.475946 -0.0565785 0.206171 0.550614 -0.0567228
[...]
POINT_DATA 2590
FIELD attributes 4
age 1 2590 float
0 0.00501121 0.0100224 0.0150336 0.0200448 0.025056 0.0288056 0.0325533 0.036301 0.0400487 0.0437965
0.0475449 0.0512905 0.0550361 0.0587817 0.0625272 0.0700239 0.0775229 0.0850219 0.0925208 0.10002
0.10752 0.115019 0.122519 0.130019 0.137519 0.145019 0.152519 0.160019 0.167518 0.175018
0.182518 0.190018 0.197517 0.205017 0.212517 0.220017 0.227516 0.235016 0.242516 0.250015
0.257515 0.265015 0.272515 0.280015 0.287514 0.295014 0.302514 0.310014 0.317513 0.325013
0.332513 0.340013 0.347512 0.355012 0.362512 0.370012 0.377512 0.385011 0.392511 0.400011
0.407511 0.415011 0.42251 0.43001 0.43751 0.44501 0.45251 0.460009 0.467509 0.475009
0.482509 0.490009 0.497508 0.505008 0.512508 0.520008 0.527507 0.535005 0.542503 0.55
0 0.00502599 0.0100532 0.0150746 0.0200877 0.0250928 0.0288318 0.032565 0.0362914 0.040011
0.0437244 0.0474306 0.0511298 0.0548272 0.0585246 0.0622237 0.0696345 0.0770705 0.0845214 0.091987
0.0994672 0.106807 0.114147 0.121489 0.128831 0.134701 0.135151 0.135601 0.13605 0.1365
0.13695 0.14445 0.15195 0.15945 0.166948 0.174447 0.181945 0.189442 0.19694 0.204437
0.211933 0.219431 0.226928 0.234425 0.241922 0.249419 0.256917 0.264414 0.271912 0.279409
0.286907 0.294406 0.301904 0.309402 0.3169 0.324398 0.331897 0.339395 0.346894 0.354392
0.361891 0.369391 0.376889 0.384388 0.391887 0.399387 0.406887 0.414386 0.421885 0.429385
0.436885 0.444385 0.451885 0.459385 0.466885 0.474385 0.481887 0.489387 0.496887 0.504388
0.511889 0.519391 0.526891 0.534392 0.541893 0.549394 0 0.00502798 0.0100578 0.0150818
0.0200992 0.0251103 0.0288573 0.0325972 0.036328 0.0400538 0.0437699 0.0474746 0.0511736 0.0548714
0.0585683 0.0622648 0.0696631 0.0770886 0.0845321 0.0919977 0.099485 0.106988 0.114492 0.122
0.129508 0.137018 0.144533 0.152042 0.15955 0.167058 0.174565 0.182077 0.189583 0.197088
0.204593 0.212098 0.21961 0.227115 0.23462 0.242125 0.24963 0.257142 0.264648 0.272153
0.279659 0.287164 0.294677 0.302183 0.309689 0.317195 0.324701 0.332214 0.33972 0.347226
0.354732 0.362239 0.369752 0.377259 0.384765 0.392272 0.399779 0.407293 0.4148 0.422307
0.429814 0.437321 0.444836 0.452343 0.45985 0.467358 0.474865 0.48238 0.489888 0.497396
0.504903 0.512411 0.519927 0.527435 0.534943 0.542452 0.54996 0 0.00503009 0.0100662
0.0150995 0.0201268 0.0251494 0.028915 0.0326689 0.0364108 0.0401423 0.0438571 0.047552 0.0512416
0.0549301 0.0586178 0.062309 0.0696962 0.0771196 0.0845736 0.0920441 0.0995357 0.107048 0.114561
0.122079 0.129602 0.137125 0.144654 0.152177 0.1597 0.167223 0.174745 0.182273 0.189793
0.197314 0.204834 0.212355 0.219881 0.227401 0.234922 0.242442 0.249962 0.257489 0.26501
0.27253 0.280051 0.287572 0.2951 0.302621 0.310142 0.317663 0.325184 0.332712 0.340234
0.347755 0.355276 0.362798 0.370327 0.377848 0.38537 0.392892 0.400414 0.407943 0.415465
0.422988 0.43051 0.438032 0.445562 0.453084 0.460607 0.46813 0.475653 0.483183 0.490706
0.498229 0.505752 0.513275 0.520806 0.528329 0.535852 0.543376 0.550899 0 0.00268284
0.00536736 0.00805356 0.0107391 0.0139182 0.0161733 0.018428 0.0206819 0.0229351 0.0251891 0.0267185
0.0282459 0.0297703 0.0312918 0.0336966 0.0357256 0.0377488 0.0397666 0.0417788 0.0437797 0.0474585
0.0511386 0.05482 0.0585079 0.0622087 0.0622132 0.0622177 0.0622223 0.0622268 0.0622313 0.0659093
0.0695972 0.0732953 0.0770036 0.0807219 0.0813161 0.0819103 0.0825046 0.083099 0.0836788 0.0868338
0.0899914 0.0931516 0.0963143 0.0994791 0.107 0.114521 0.122048 0.12958 0.137116 0.144659
0.152196 0.159733 0.167269 0.174806 0.182348 0.189883 0.197418 0.204953 0.212488 0.220029
0.227564 0.235099 0.242633 0.250168 0.25771 0.265245 0.27278 0.280315 0.287851 0.295393
0.302929 0.310464 0.318 0.325535 0.333078 0.340614 0.34815 0.355686 0.363222 0.370766
0.378302 0.385838 0.393375 0.400911 0.408455 0.415992 0.423529 0.431066 0.438603 0.446147
0.453684 0.461221 0.468759 0.476296 0.483841 0.491378 0.498916 0.506454 0.513992 0.521537
0.529075 0.536613 0.544151 0.551689 0 0.00126444 0.00252926 0.00379476 0.00506106 0.00632819
0.0101157 0.0139116 0.017719 0.0215331 0.0253295 0.0269112 0.0284827 0.0300474 0.031605 0.0330008
0.0333269 0.0336527 0.0339782 0.0343035 0.0346286 0.0364568 0.0382779 0.0400901 0.041897 0.0436945
0.045495 0.0473001 0.0491173 0.0509393 0.0527656 0.052904 0.0530425 0.0531809 0.0533194 0.0534641
0.0551556 0.05685 0.0585472 0.0602474 0.0619501 0.065646 0.0693587 0.0730895 0.0768309 0.0805813
0.0843447 0.0881073 0.0918707 0.0956366 0.099405 0.10694 0.114478 0.12202 0.129566 0.137116
0.144681 0.152234 0.159786 0.167339 0.174891 0.182451 0.190003 0.197554 0.205105 0.212656
0.220215 0.227765 0.235316 0.242867 0.250418 0.257977 0.265528 0.273079 0.28063 0.288181
0.29574 0.303292 0.310843 0.318395 0.325947 0.333506 0.341058 0.34861 0.356162 0.363714
0.371274 0.378826 0.386378 0.39393 0.401483 0.409043 0.416596 0.424148 0.431701 0.439254
0.446814 0.454367 0.46192 0.469473 0.477026 0.484587 0.49214 0.499693 0.507247 0.5148
0.522361 0.529915 0.537468 0.545022 0.552575 0 0.00126545 0.00253141 0.00379788 0.00506487
0.0063324 0.00822678 0.0101235 0.0120228 0.0139248 0.015829 0.0177464 0.0196688 0.021592 0.0235185
0.0254573 0.0264284 0.0273969 0.028361 0.0293206 0.03028 0.0307557 0.0312298 0.0317018 0.0321717
0.0326862 0.0331413 0.0335944 0.0340455 0.0344947 0.0349413 0.0358516 0.0367586 0.0376616 0.0385603
0.0394502 0.0403393 0.0412269 0.0421139 0.0430005 0.0438877 0.0452177 0.0465543 0.0478976 0.049242
0.0528817 0.0547104 0.0565529 0.0584067 0.0602672 0.0621284 0.0639996 0.0658719 0.0677463 0.0696234
0.0715045 0.073393 0.075276 0.0771551 0.079036 0.0809221 0.0840728 0.0872277 0.0903844 0.0935426
0.0962109 0.0969515 0.0976921 0.0984329 0.0991739 0.0999149 0.107508 0.115103 0.122701 0.130304
0.137911 0.145543 0.15315 0.160752 0.168355 0.175956 0.183577 0.191176 0.198774 0.206372
0.213969 0.221586 0.229183 0.236779 0.244375 0.251972 0.259586 0.267183 0.274778 0.282374
0.28997 0.297583 0.305179 0.312774 0.32037 0.327966 0.335577 0.343173 0.350768 0.358363
0.365958 0.373568 0.381164 0.388758 0.396353 0.403948 0.411557 0.419152 0.426746 0.43434
0.441935 0.449543 0.457138 0.464731 0.472325 0.47992 0.487526 0.495121 0.502714 0.510307
0.517901 0.525507 0.5331 0.540693 0.548287 0.55588 0 0.00126279 0.00252625 0.00379074
0.00505642 0.00632327 0.0082333 0.0101453 0.0120611 0.0139802 0.0159047 0.017822 0.0197522 0.0216953
0.0236511 0.0256293 0.0266293 0.0276301 0.0286312 0.0296315 0.0306436 0.0308905 0.0311374 0.0313839
0.0316284 0.0318181 0.0325691 0.0333076 0.0340331 0.0347447 0.0354481 0.035895 0.0363402 0.0367838
0.037226 0.0376622 0.0380995 0.038534 0.0389661 0.0393975 0.0398265 0.0402584 0.0406903 0.0411223
0.041555 0.0419902 0.0424255 0.0428603 0.0432955 0.0437316 0.0441699 0.0450465 0.0459324 0.0468289
0.0477363 0.0486606 0.0493818 0.0501022 0.0508248 0.0515505 0.0524376 0.052619 0.0528005 0.0529821
0.0531638 0.0533458 0.054299 0.0552507 0.0562045 0.057162 0.0581214 0.0590897 0.0600574 0.0610261
0.0619977 0.062971 0.0649384 0.0669009 0.0688583 0.0708199 0.0727646 0.0746957 0.0766414 0.078602
0.0805673 0.0825375 0.0864983 0.0904511 0.094378 0.0982885 0.102203 0.11003 0.117825 0.125549
0.133214 0.140883 0.148581 0.156258 0.163929 0.171597 0.179262 0.186944 0.194608 0.20227
0.20993 0.21759 0.225264 0.232923 0.240581 0.248237 0.255894 0.263563 0.27122 0.278875
0.286529 0.294183 0.301849 0.309503 0.317156 0.324808 0.33246 0.340123 0.347774 0.355425
0.363075 0.370725 0.378384 0.386034 0.393683 0.401331 0.408979 0.416635 0.424283 0.43193
0.439576 0.447222 0.454875 0.462521 0.470166 0.47781 0.485454 0.493105 0.500749 0.508392
0.516034 0.523676 0.531324 0.538965 0.546607 0.554248 0.561889 0 0.00126441 0.00252947
0.00379518 0.00506154 0.00632915 0.00824619 0.0101656 0.0120884 0.0140174 0.0159587 0.0169287 0.0179017
0.0188778 0.0198571 0.0208396 0.0218273 0.022823 0.0238277 0.0248415 0.0258656 0.0263832 0.0269026
0.0274256 0.0279523 0.0284853 0.0287753 0.0290666 0.0293602 0.0296566 0.0297545 0.0300549 0.0303566
0.0306593 0.0309616 0.0312724 0.0313693 0.0314662 0.0315633 0.0316606 0.0317316 0.0317663 0.0318009
0.0318355 0.0318701 0.0319031 0.0320667 0.0322302 0.0323935 0.0325567 0.0327211 0.0328997 0.0330779
0.0332556 0.0334304 0.0335594 0.0336652 0.0337704 0.0338751 0.0339788 0.0340839 0.0341947 0.0343039
0.0344117 0.0345184 0.0346056 0.0346595 0.0347132 0.0347666 0.0348197 0.0348716 0.0349695 0.035067
0.0351641 0.0352607 0.0353552 0.0354769 0.0355972 0.0357161 0.0358338 0.0360256 0.0361265 0.0362271
0.0363273 0.0364274 0.0365175 0.0366047 0.036692 0.0367793 0.0368665 0.0370271 0.0371483 0.0372692
0.03739 0.0375105 0.0376295 0.0378484 0.0380658 0.0382832 0.0385013 0.0387158 0.0389341 0.0391517
0.0393697 0.0395881 0.0398064 0.0400276 0.0402471 0.0404668 0.0406868 0.0409075 0.0411281 0.0413481
0.0415686 0.0417897 0.0420134 0.0422382 0.0424613 0.0426844 0.0429082 0.043133 0.043471 0.0438107
0.044156 0.0445072 0.044669 0.0448284 0.0449882 0.0451483 0.0453087 0.0454704 0.0459588 0.0464396
0.0469207 0.047397 0.0478944 0.0484124 0.0489199 0.0494284 0.0499417 0.0504623 0.0505309 0.0505997
0.0506685 0.0507376 0.0508052 0.0518155 0.0528683 0.0539657 0.0550238 0.0560942 0.0572978 0.0584794
0.0596628 0.0608522 0.0620412 0.062435 0.062828 0.0632208 0.0636138 0.0640558 0.0648684 0.0656728
0.0664747 0.067279 0.0680819 0.0681924 0.0683029 0.068413 0.0685229 0.0686318 0.0697136 0.0707878
0.0718601 0.0729305 0.0739954 0.0751483 0.0763223 0.0775 0.0786791 0.0798607 0.0812714 0.0826831
0.0841011 0.0855244 0.0873069 0.0881219 0.0889332 0.0897407 0.0905446 0.0913442 0.0958533 0.100338
0.104749 0.109068 0.113257 0.121432 0.129544 0.137584 0.145552 0.153437 0.161198 0.168958
0.176716 0.184471 0.192223 0.199972 0.20772 0.215467 0.223212 0.230954 0.23766 0.244366
0.25107 0.257774 0.264585 0.265596 0.266608 0.267619 0.268631 0.269642 0.277376 0.28511
0.292845 0.300579 0.308314 0.316039 0.323774 0.331508 0.339242 0.346976 0.354695 0.362429
0.370162 0.377896 0.38563 0.393342 0.401075 0.408808 0.416541 0.424275 0.431981 0.439713
0.447445 0.455177 0.46291 0.47061 0.478341 0.486073 0.493804 0.501535 0.50923 0.51696
0.52469 0.53242 0.54015 0.547839 0.555567 0.563295 0.571023 0.578751 0 0.00125411
0.00250916 0.00376552 0.00502333 0.00628271 0.00821401 0.010148 0.0120848 0.0140286 0.0159868 0.0169595
0.0179361 0.0189167 0.0199013 0.0208901 0.0218846 0.0228898 0.0239067 0.0249354 0.0259771 0.0265057
0.0270375 0.0275761 0.0281214 0.0286757 0.0292412 0.0298145 0.0304007 0.0310009 0.0316276 0.0319465
0.0322653 0.0325848 0.0329054 0.0332404 0.0333108 0.0333811 0.0334515 0.0335219 0.0335794 0.0336568
0.0337327 0.0338077 0.0338821 0.0339445 0.0341158 0.0342839 0.0344487 0.0346099 0.0347766 0.0349193
0.0350592 0.0351966 0.0353305 0.0354499 0.0355701 0.0356898 0.035809 0.0359265 0.0360382 0.0361556
0.0362699 0.0363812 0.036492 0.0366381 0.0367452 0.0368521 0.0369588 0.0370653 0.037163 0.0373609
0.0375588 0.0377602 0.0379647 0.0383843 0.038619 0.0388542 0.0390872 0.0393181 0.0395441 0.0400086
0.0404666 0.0409206 0.0413713 0.0418166 0.042274 0.0427159 0.0431611 0.0436093 0.0440605 0.0445338
0.0450009 0.0454793 0.0459623 0.0464534 0.0473319 0.0482312 0.0491449 0.0500338 0.0517859 0.052908
0.0540328 0.0551813 0.0563502 0.0575514 0.0588089 0.0600396 0.0612533 0.0624762 0.0637056 0.0646145
0.0655097 0.0664039 0.0672924 0.0685111 0.0687888 0.0690667 0.0693448 0.0696235 0.0699024 0.0706827
0.0714648 0.0722459 0.073028 0.0739936 0.0744164 0.074839 0.0752613 0.0756824 0.076102 0.0773407
0.0785839 0.0798346 0.0810862 0.0823371 0.0848216 0.0873095 0.0897679 0.0921834 0.0945749 0.0994002
0.10418 0.10882 0.113325 0.117677 0.121732 0.125772 0.129795 0.1338 0.139077 0.143065
0.14701 0.150913 0.154776 0.158598 0.166358 0.174125 0.18189 0.189654 0.197417 0.205162
0.212923 0.220685 0.228446 0.236206 0.243939 0.251698 0.259457 0.267216 0.274974 0.282699
0.290457 0.298215 0.305972 0.31373 0.321448 0.329205 0.336961 0.344718 0.352475 0.360186
0.367942 0.375697 0.383453 0.391209 0.398914 0.406668 0.414422 0.422177 0.429931 0.437631
0.445383 0.453136 0.460889 0.468642 0.476336 0.484087 0.491838 0.499589 0.507341 0.51503
0.522779 0.530529 0.538278 0.546027 0.553711 0.561456 0.569203 0.576949 0.584696 0
0.00125903 0.00251874 0.00377912 0.00504093 0.00630438 0.00823306 0.0101647 0.0120992 0.0140412 0.0159973
0.0169702 0.0179471 0.0189282 0.0199135 0.020903 0.0218975 0.0229026 0.0239193 0.0249478 0.0259893
0.0265184 0.0270502 0.0275879 0.0281322 0.0286858 0.0292488 0.0298194 0.0303996 0.0309923 0.0316145
0.0319307 0.0322475 0.0325647 0.0328819 0.0332116 0.0334497 0.0336864 0.0339211 0.0341497 0.0342464
0.03435 0.0344525 0.0345539 0.0346542 0.0347572 0.0349585 0.035153 0.0353409 0.0355228 0.0356776
0.0357564 0.0358349 0.0359126 0.0359895 0.0360647 0.0360681 0.0360716 0.0360751 0.0360785 0.0360821
0.0362247 0.0363659 0.0365059 0.0366444 0.0368462 0.036922 0.0369976 0.0370731 0.0371485 0.0372201
0.0376778 0.0381408 0.0386174 0.0391017 0.0395155 0.039977 0.0404275 0.0408767 0.041328 0.0417875
0.0422634 0.0427296 0.0431924 0.0436577 0.0441324 0.0446246 0.0451074 0.0455847 0.0460673 0.0465639
0.0475975 0.0486539 0.0497224 0.0508108 0.0516463 0.0517042 0.0517621 0.0518199 0.0518777 0.0519355
0.0530654 0.0542213 0.0554041 0.0566095 0.0578347 0.0591074 0.060358 0.0615896 0.0628377 0.0640793
0.0647034 0.0653174 0.0659287 0.0665386 0.0671512 0.0677778 0.0683947 0.0690026 0.069612 0.0702271
0.0714782 0.0727389 0.0739964 0.0752489 0.0764909 0.0772625 0.0780269 0.0787922 0.0795594 0.0804172
0.0808389 0.0812607 0.0816829 0.0821059 0.0825207 0.0825676 0.0826145 0.0826614 0.0827082 0.082755
0.0852656 0.0877606 0.0902405 0.0926624 0.0950548 0.0998157 0.104528 0.109129 0.113618 0.117964
0.124971 0.131886 0.13868 0.145356 0.159215 0.163203 0.16719 0.171177 0.175163 0.179238
0.182981 0.186725 0.190468 0.194211 0.197954 0.205693 0.213436 0.221178 0.22892 0.236661
0.244389 0.25213 0.25987 0.26761 0.275351 0.283071 0.29081 0.29855 0.306289 0.314029
0.321742 0.32948 0.337219 0.344958 0.352697 0.360404 0.368142 0.37588 0.383618 0.391356
0.399057 0.406794 0.414531 0.422268 0.430005 0.4377 0.445436 0.453172 0.460908 0.468644
0.476334 0.484068 0.491803 0.499537 0.507272 0.514957 0.52269 0.530423 0.538156 0.545889
0.553569 0.561299 0.569029 0.57676 0.584491 0 0.00127992 0.00256048 0.00384229 0.00512558
0.00641037 0.0083168 0.0102258 0.0121374 0.0140556 0.0159859 0.0169579 0.017933 0.0189115 0.0198934
0.0208788 0.0218729 0.0228761 0.0238892 0.0249122 0.0259474 0.0263905 0.0268352 0.0272834 0.027735
0.0278584 0.0280069 0.0281557 0.0283046 0.0284535 0.0286028 0.0291462 0.0296939 0.0302488 0.0308125
0.0313971 0.0314722 0.0315473 0.0316223 0.0316974 0.0317626 0.0319798 0.0321969 0.032414 0.0326308
0.0328512 0.0329314 0.0330115 0.0330916 0.0331714 0.0332406 0.0334513 0.0336611 0.0338698 0.0340753
0.0342871 0.0343495 0.0344115 0.0344731 0.0345342 0.0345872 0.0345928 0.0345984 0.0346039 0.0346094
0.0346149 0.03483 0.0350405 0.0352466 0.0354453 0.0356354 0.0356574 0.0356792 0.035701 0.0357228
0.0357451 0.0358467 0.0359474 0.036047 0.0361479 0.0362921 0.0363858 0.0364789 0.0365714 0.036663
0.0367521 0.0368564 0.0369598 0.0370628 0.0371659 0.0373149 0.0374135 0.037512 0.0376105 0.0377098
0.0378068 0.0380187 0.0382287 0.0384382 0.038647 0.0388591 0.0390792 0.0392947 0.0395059 0.0397172
0.0399312 0.0401474 0.0403619 0.0405754 0.0407896 0.0410063 0.0412275 0.0414452 0.0416615 0.0418782
0.0420959 0.0423148 0.0425322 0.0427495 0.0429671 0.0431861 0.0436314 0.0440771 0.0445259 0.0449782
0.0454385 0.0459176 0.0463845 0.0468434 0.0473053 0.0477807 0.0482634 0.0487442 0.0492249 0.0497095
0.050202 0.0512188 0.0522412 0.0532752 0.0543628 0.0554678 0.0558289 0.0561903 0.0565528 0.056917
0.0573013 0.0580958 0.0588898 0.0596834 0.0604808 0.0612862 0.0624861 0.0636614 0.0648432 0.0660401
0.0672325 0.0684594 0.0696621 0.0708421 0.0720158 0.0731816 0.073649 0.0741156 0.0745826 0.0750501
0.0755082 0.075818 0.0761278 0.0764379 0.0767481 0.0770663 0.0774621 0.0778581 0.0782545 0.0786511
0.079048 0.0813935 0.0837407 0.0860873 0.0884038 0.0906928 0.0952024 0.0997646 0.104234 0.108559
0.112776 0.121086 0.129365 0.137582 0.145627 0.153502 0.161244 0.168985 0.176722 0.184457
0.192188 0.199915 0.207642 0.215368 0.223092 0.230814 0.237796 0.244778 0.251759 0.258739
0.265729 0.266463 0.267198 0.267932 0.268666 0.269401 0.277114 0.284828 0.292542 0.300257
0.307971 0.315678 0.323392 0.331106 0.33882 0.346535 0.354235 0.361949 0.369663 0.377376
0.38509 0.392785 0.400498 0.408211 0.415925 0.423638 0.431327 0.43904 0.446752 0.454465
0.462178 0.469862 0.477573 0.485285 0.492997 0.500708 0.508388 0.516099 0.523809 0.53152
0.53923 0.546904 0.554613 0.562321 0.57003 0.57774 0 0.00127753 0.00255577 0.00383512
0.00511575 0.00639767 0.00829924 0.0102028 0.0121091 0.0140203 0.0159396 0.0169038 0.0178698 0.0188378
0.019808 0.0207805 0.0217542 0.022733 0.0237171 0.0247057 0.0256981 0.0266888 0.0276859 0.0286913
0.0296919 0.0307004 0.0307758 0.0308513 0.0309267 0.0310019 0.0310715 0.0319936 0.0328961 0.0337783
0.0346393 0.0354977 0.0359457 0.0363913 0.036835 0.0372775 0.0377146 0.0381532 0.0385893 0.0390246
0.0394592 0.039888 0.0403211 0.0407543 0.0411878 0.0416217 0.0420562 0.0424924 0.0429275 0.0433634
0.0438003 0.0442391 0.0451172 0.0460038 0.046897 0.0477977 0.0487233 0.0496704 0.0506098 0.0515427
0.0524823 0.0534315 0.0541657 0.0549053 0.0556473 0.0563909 0.0575351 0.0576853 0.0578356 0.057986
0.0581365 0.058287 0.0592709 0.0602543 0.061238 0.0622215 0.0632038 0.0652039 0.0671909 0.0691672
0.0711531 0.0731368 0.0750953 0.0770802 0.0790798 0.0810833 0.0830886 0.0871009 0.0911304 0.0951282
0.0990807 0.103028 0.105914 0.108804 0.111704 0.114595 0.118005 0.122938 0.127844 0.132722
0.137574 0.1424 0.150109 0.157822 0.165532 0.17324 0.180945 0.188638 0.196339 0.204038
0.211736 0.219432 0.227119 0.234812 0.242504 0.250195 0.257885 0.265568 0.273255 0.280942
0.288628 0.296313 0.303991 0.311674 0.319356 0.327037 0.334718 0.342393 0.350071 0.357749
0.365426 0.373102 0.380774 0.388449 0.396122 0.403795 0.411467 0.419136 0.426807 0.434477
0.442146 0.449815 0.457481 0.465148 0.472814 0.48048 0.488145 0.495808 0.503472 0.511135
0.518798 0.526459 0.534119 0.541779 0.549439 0.557098 0.564757 0 0.00127409 0.0025488
0.00382396 0.00510034 0.00637796 0.00827386 0.0101719 0.0120722 0.0139756 0.015883 0.0177923 0.0197068
0.0216263 0.0235504 0.0254824 0.0264533 0.0274212 0.0283841 0.0293421 0.0299614 0.0309794 0.0319898
0.0329898 0.0339795 0.0349576 0.0358665 0.0367722 0.0376737 0.0385723 0.0394619 0.0403525 0.0412417
0.0421297 0.0430167 0.0439031 0.0456803 0.0474747 0.0492837 0.0511024 0.0529375 0.0538068 0.0546774
0.0555501 0.0564249 0.0577857 0.0586684 0.0595529 0.0604392 0.0613272 0.0622167 0.0640923 0.0659708
0.067852 0.0697359 0.0716218 0.0735172 0.0754049 0.0772936 0.0791837 0.0810748 0.0848708 0.088666
0.0924656 0.0962697 0.100088 0.107787 0.115489 0.123145 0.130765 0.138399 0.146048 0.153694
0.161339 0.168983 0.176624 0.18427 0.191913 0.199554 0.207193 0.214831 0.222473 0.230111
0.237748 0.245384 0.253019 0.260658 0.268293 0.275927 0.283561 0.291194 0.29883 0.306463
0.314095 0.321727 0.329357 0.336991 0.344622 0.352252 0.359881 0.36751 0.375141 0.382769
0.390397 0.398025 0.405651 0.41328 0.420907 0.428533 0.436158 0.443783 0.45141 0.459034
0.466659 0.474282 0.481905 0.48953 0.497152 0.504775 0.512396 0.520017 0.527639 0.53526
0.54288 0.5505 0.558119 0 0.00127141 0.00254321 0.00381554 0.00508846 0.00636199 0.0101414
0.0139323 0.0177224 0.0215092 0.0252998 0.0257906 0.0262802 0.0267689 0.0272567 0.027686 0.0290757
0.0304602 0.0318394 0.0332136 0.0345852 0.0364264 0.038258 0.0400728 0.0418835 0.0436891 0.0455003
0.0473089 0.0491189 0.0509376 0.0527676 0.0546038 0.0564414 0.0582819 0.0601252 0.0619712 0.0656733
0.0693893 0.0731213 0.0768682 0.0806189 0.0843893 0.0881579 0.0919267 0.0956975 0.0994708 0.107
0.114529 0.122062 0.12961 0.137173 0.144752 0.152327 0.159905 0.167482 0.175058 0.182639