# vtk DataFile Version 2.0
sampleSurface
ASCII
DATASET POLYDATA
POINTS 2021 float
-0.500032 0 0.11501 -0.499951 3.38813e-21 0.0392727 -0.789037 8.47033e-21 0.120673 -0.500013 -1.35525e-20
0.193965 1.00003 0 0.0485099 1.00003 0 0.0478584 0.475202 0 0.0353615
0.250044 1.41878e-20 0.0305359 0.2506 -5.42101e-20 0.117067 0.251301 0 0.203885 0.364989
0 0.203772 1.75002 0 0.113255 1.75002 0 0.0564279 2.50001 6.89146e-18
0.059229 2.21354 0 0.250758 2.50001 0 0.252875 3.25001 -3.47927e-17 0.0598775
3.25001 -1.69407e-21 0.253888 4.00001 5.60566e-18 0.0599857 4 0 0.253986 4.75
-1.79088e-17 0.0599988 4.75 8.47033e-22 0.253998 5.5 -2.79246e-17 0.0599999 5.5 -4.23516e-22
0.253999 6.25 1.01187e-17 0.06 6.25 0 0.254 7 2.93732e-17 0.06
7 0 0.254 7.75 -2.65294e-17 0.06 7.75 0 0.254 8.5
1.8923e-17 0.06 8.5 0 0.254 9.25 -2.88552e-17 0.06 9.25 -5.29396e-23
0.254 10 -2.64698e-23 0.254 10 0 0.06 -4.24997 0 0.0599042
-5 0 0.0599861 -5 0 0.253986 -4.24997 0 0.253912 -3.49995
0 0.0593815 -3.49994 0 0.253441 -2.74993 0 0.0570188 -2.74991 0
0.251316 -1.99991 0 0.0492276 -1.99987 0 0.242776 -1.24992 -1.69407e-21 0.03
-1.24985 1.23328e-17 0.222327 -1.24989 3.38813e-21 0.125756 -0.874924 2.08116e-17 0.03 -0.874929
0 0.122356 -0.124951 -8.47033e-22 0.03 -0.499941 0 0.03 -0.124922 -8.47033e-22
0.0385291 1.00021 0 0.231242 0.625368 0 0.203537 0.25004 -2.11758e-22 0.03
1.75003 0 0.247334 1.92873 1.69407e-21 0.441438 2.50001 0 0.447397 3.25
-1.69407e-21 0.447898 4 0 0.447986 4.75 0 0.447997 5.5 -4.23516e-22
0.447999 6.25 4.23516e-22 0.447999 7 0 0.448 7.75 -1.05879e-22 0.448
8.5 0 0.448 9.25 0 0.448 10 -2.64698e-23 0.448 -5
-8.47033e-22 0.447985 -4.24997 0 0.447919 -3.49993 0 0.4475 -2.74988 0
0.445609 -1.9998 6.77626e-21 0.437758 -1.24969 1.61411e-17 0.417681 -1.24976 -6.77626e-21 0.31973
-0.875161 7.70461e-18 0.216228 -0.875403 0 0.312476 -0.499924 -8.74138e-19 0.250039 -0.312433
0 0.250037 -0.312436 0 0.200025 -0.499924 0 0.200026 0.250062 3.38813e-21
0.24921 0.250039 -1.69407e-21 0.250046 0.250032 0 0.300069 0.437526 3.05948e-18 0.300066
0.625026 0 0.30005 1.00072 -8.23994e-18 0.326497 1.00196 0 0.423 1.75013
0 0.439575 1.75013 1.77877e-20 0.448245 1.00135 0 0.537141 1.00002 0
0.61834 1.74999 2.71051e-20 0.633055 2.49999 -3.38813e-21 0.641448 3.25 0 0.641907
4 -1.69407e-21 0.641985 4.75 -8.47033e-22 0.641996 5.5 -4.23516e-22 0.641998 6.25
0 0.641999 7 0 0.641999 7.75 0 0.642 8.5 5.29396e-23
0.642 9.25 -5.29396e-23 0.642 10 0 0.642 -5 0 0.641985
-4.24997 -1.69407e-21 0.641926 -3.49993 0 0.641557 -2.74988 0 0.639897 -1.99989
6.77626e-21 0.63382 -1.25099 2.55465e-18 0.614606 -1.25 -2.71051e-20 0.515981 -0.878244 0
0.50789 -0.875961 2.71051e-20 0.459694 -0.875609 0 0.410432 -0.498432 0 0.400603
-0.498071 -1.70762e-18 0.413126 -0.450805 0 0.413349 -0.45095 0 0.400955 0.250009
1.89735e-19 0.412703 0.25 2.71051e-20 0.425212 0.296872 1.00289e-18 0.425187 0.343754 -2.71051e-20
0.425153 0.343763 0 0.400146 0.250006 0 0.400175 1.00162 1.41488e-17 0.520353
-2 4.23516e-22 0.820145 -2.09502 -2.11758e-22 0.830091 -2 0 0.829497 -1.25123
0 0.813251 -1.25126 0 0.713737 -1.25101 6.77626e-21 0.62198 1.00059 0
0.714169 1.00094 0 0.809205 1.75018 0 0.82775 2.5 0 0.835521
3.25 0 0.835917 4 -1.69407e-21 0.835986 4.75 -8.47033e-22 0.835996 5.5
0 0.835998 6.25 0 0.835999 7 0 0.835999 7.75 0
0.836 8.5 0 0.836 9.25 0 0.836 10 0 0.836
-5 -8.47033e-22 0.835986 -4.24997 0 0.835935 -3.49995 0 0.835616 -2.74991
0 0.83419 -0.970118 0 0.703382 -0.87455 0 0.699864 -0.874264 -2.71051e-20
0.649852 -0.874033 -2.71051e-20 0.599873 -0.49698 0 0.599585 -0.497345 -9.21572e-19 0.612046
-0.450014 0 0.611892 -0.44938 2.71051e-20 0.599454 -2.00002 0 0.84097 -1.84639
-3.38813e-21 1.02215 -1.25185 0 1.01276 -0.896512 -3.38813e-21 0.900668 -0.908183 6.77626e-21
0.801076 -0.904022 -1.86347e-20 1.00093 0.624925 0 0.799916 0.249931 0 0.799891
0.249978 0 0.899916 0.249997 0 0.999939 0.999987 0 0.999957 1.75061
-2.1684e-19 1.02409 2.50003 0 1.0296 3.25 -1.69407e-21 1.02993 4 0
1.02999 4.75 0 1.03 5.5 0 1.03 6.25 2.11758e-22 1.03
7 0 1.03 7.75 0 1.03 8.5 5.29396e-23 1.03 9.25
0 1.03 10 0 1.03 -5 0 1.02999 -4.24998 0
1.02994 -3.49996 -8.47033e-22 1.02968 -2.74996 0 1.02849 -2.00026 0 1.02458
-0.87482 0 0.799893 -0.87491 0 0.899919 -0.49993 0 0.799862 -0.499958
7.6233e-19 0.849889 -0.312476 0 0.849885 -0.312472 0 0.799853 -1.25001 8.04681e-21
1.19601 -0.499979 5.29396e-23 1.10737 -0.731886 2.11758e-22 1.19997 -0.499981 0 1.19997
-0.124987 0 0.999933 -0.477759 -5.29396e-23 0.999933 -0.487556 -1.45584e-22 1.09995 0.250008
0 1.19997 1 0 1.19997 1.7507 0 1.22203 2.50003 -1.35525e-20
1.22368 3.25 0 1.22394 4 0 1.22399 4.75 4.23516e-22 1.224
5.5 0 1.224 6.25 2.11758e-22 1.224 7 0 1.224 7.75
1.05879e-22 1.224 8.5 0 1.224 9.25 0 1.224 10 2.64698e-23
1.224 -5 4.23516e-22 1.22399 -4.24999 -4.23516e-22 1.22395 -3.49998 0 1.22374
-2.75001 0 1.22279 -2.00077 0 1.21965 -1.24997 4.23516e-22 1.19997 -0.499969
-5.29396e-23 0.999933 -0.874942 0 0.999936 -0.499979 -1.32349e-23 1.09995 -2.75001 0
1.36967 -3.18711 4.23516e-22 1.41751 -2.75001 4.23516e-22 1.4171 -2.00072 3.38813e-21 1.29692
-2.00065 0 1.41474 -1.25823 6.35275e-21 1.40014 -0.980416 0 1.39998 -0.499986
0 1.39998 0.250009 0 1.39998 1 0 1.39998 1.75054 0
1.41682 2.50002 -1.35525e-20 1.41776 3.25 0 1.41796 4 4.23516e-22 1.41799
4.75 0 1.418 5.5 0 1.418 6.25 0 1.418 7
0 1.418 7.75 0 1.418 8.5 0 1.418 9.25 0
1.418 10 0 1.418 -5 0 1.41799 -4.24999 0 1.41797
-3.49999 -4.23516e-22 1.41781 -1.24998 0 1.39998 -2.80392 1.32349e-23 1.61143 -2.75
-1.32349e-23 1.6114 -2.0003 0 1.60983 -1.25396 2.64698e-23 1.60004 -1.12789 2.64698e-23
1.59999 -0.49999 1.05879e-22 1.59999 0.250008 0 1.59999 1.00001 4.23516e-22 1.59999
1.75038 0 1.61122 2.50002 0 1.61184 3.25 -4.23516e-22 1.61197 4
-4.23516e-22 1.61199 4.75 0 1.612 5.5 0 1.612 6.25 0
1.612 7 0 1.612 7.75 5.29396e-23 1.612 8.5 2.64698e-23 1.612
9.25 -1.32349e-23 1.612 10 -1.32349e-23 1.612 -5 0 1.61199 -4.24999
0 1.61198 -3.49999 0 1.61187 -1.24999 0 1.59999 -2.75 -1.32349e-23
1.63714 -2.64195 -2.11758e-22 1.80559 -2.00012 -8.47033e-22 1.80492 -1.25741 0 1.80004
-1.19082 -7.94093e-23 1.8 -0.499992 1.05879e-22 1.79999 0.250006 2.11758e-22 1.79999 1
0 1.8 1.75023 0 1.80561 2.50001 3.38813e-21 1.80592 3.25 0
1.80599 4 0 1.806 4.75 2.11758e-22 1.806 5.5 0 1.806
6.25 0 1.806 7 0 1.806 7.75 0 1.806 8.5
2.64698e-23 1.806 9.25 0 1.806 10 0 1.806 -5 0
1.806 -4.25 -2.11758e-22 1.80599 -3.49999 0 1.80594 -2.75 -1.05879e-22 1.8057
-1.24999 0 1.8 -2 -4.76456e-22 1.98532 -1.20969 -1.65436e-23 2 -0.499993
0 2 0.250006 0 2 1 0 2 1.75 0
2 2.5 0 2 3.25 0 2 4 0 2
4.75 -1.05879e-22 2 5.5 0 2 6.25 0 2 7
5.29396e-23 2 7.75 0 2 8.5 0 2 9.25 0
2 10 -1.32349e-23 2 -5 2.21817e-18 2 -4.25 1.05879e-22 2
-3.49999 0 2 -2.74999 0 2 -1.99999 -5.29396e-23 2 -1.24999
3.30872e-24 2 0.0956945 -5.42101e-20 0.203879 0.0632748 0 0.203876 0.0625511 0
0.250042 -0.403589 6.77626e-21 0.40138 -0.405779 7.7927e-19 0.38799 -0.406379 -6.77626e-21 0.375196
-0.499567 -1.35525e-20 0.375265 0.250006 -6.50521e-19 0.375144 0.156247 0 0.375155 0.156237
9.41901e-19 0.400212 0.203129 0 0.400201 0.249796 0 0.59991 0.249852 -1.0842e-19
0.587433 0.202953 0 0.587417 0.202888 6.50521e-19 0.599901 0.625121 -6.77626e-21 0.499953
0.717439 6.77626e-21 0.504955 0.625095 6.77626e-21 0.475379 0.343596 1.0842e-19 0.599918 0.343639
0 0.574939 0.296781 0 0.574964 0.249926 0 0.574977 0.62499 -4.2826e-18
0.549927 0.624917 4.55365e-18 0.599925 0.203133 0 0.412725 -0.449046 0 0.587135
-0.496581 5.42101e-20 0.587161 0.625036 -9.32414e-18 0.40006 0.625067 1.13164e-18 0.450032 0.249704
0 0.624881 0.155871 0 0.599866 0.155839 1.95156e-18 0.624853 0.249886 1.35525e-20
0.749873 0.062411 0 0.749846 0.0624478 -4.26227e-18 0.799869 -0.312472 0 0.749804
-0.499901 -3.38813e-21 0.749824 -0.691227 0 0.30453 -0.499912 3.02221e-18 0.300065 -0.875784
-3.11708e-18 0.361353 -0.592465 -2.71051e-20 0.40036 -0.499854 0 0.350135 -0.687111 1.35525e-20
0.350117 -0.68656 -2.71051e-20 0.40021 0.437526 -1.35525e-20 0.400108 0.437522 6.77626e-21 0.350086
0.250015 -2.51399e-18 0.35011 0.625027 3.38813e-21 0.350064 -0.592287 0 0.425286 -0.498048
0 0.425444 -0.873902 5.42101e-18 0.54992 -0.496663 0 0.574746 -0.591532 0
0.574798 -0.591729 0 0.599734 -0.149108 0 0.406489 -0.149477 -5.29396e-23 0.403592
-0.149678 0 0.406489 -0.451876 -2.1684e-18 0.499977 -0.451579 0 0.487563 -0.498366
0 0.487552 -0.498515 -1.0842e-19 0.499993 0.437553 0 0.450075 0.437532 -6.07153e-18
0.425113 0.254621 -1.25361e-19 0.496697 0.26485 -5.42101e-20 0.498023 0.264831 0 0.496529
0.254636 -2.30393e-19 0.49668 0.570241 0 0.499932 0.437665 -2.71051e-20 0.474991 0.437859
-2.71051e-20 0.49988 0.437372 -1.0842e-19 0.599915 0.249722 3.25261e-19 0.649874 0.43732 -5.42101e-20
0.649899 0.624872 0 0.649914 0.624883 -3.95734e-18 0.699913 0.43734 6.83047e-18 0.699894
0.249817 0 0.699869 -0.592227 0 0.624743 -0.498071 -2.71051e-20 0.624658 -0.499769
6.77626e-21 0.69979 -0.687025 0 0.699824 -0.150854 -1.03677e-18 0.599678 -0.151059 -6.77626e-21
0.605522 -0.127339 6.77626e-21 0.605681 -0.127867 0 0.599582 -0.406139 -4.40457e-20 0.699754
-0.406113 0 0.674749 -0.499634 0 0.674774 -0.18433 -4.23516e-22 0.674527 -0.163626
-4.23516e-22 0.678958 -0.165125 0 0.674537 -0.171868 4.23516e-22 0.674524 -0.14924 3.34737e-19
0.400169 -0.125737 0 0.400165 -0.12551 0 0.393854 -0.149076 -2.11758e-22 0.393877
-0.499925 -2.61564e-18 0.325088 -0.406241 0 0.325087 -0.4062 0 0.300069 -0.124901
0 0.300062 -0.218633 -3.27294e-18 0.299673 -0.218596 1.35525e-20 0.324664 -0.124851 0
0.325085 -0.126061 7.86047e-19 0.406473 -0.0785222 1.30782e-18 0.400166 -0.126118 3.38813e-21 0.41275
-0.0785648 0 0.412729 0.240678 1.0842e-18 0.500153 0.252614 -2.1684e-19 0.498317 0.252386
1.0842e-19 0.496231 0.241035 0 0.496114 0.228892 -1.35525e-20 0.496204 0.228835 6.77626e-21
0.498715 0.229819 2.71051e-20 0.500074 0.25248 0 0.499935 0.240657 -1.6263e-19 0.500957
0.264863 0 0.500154 0.264689 0 0.500951 0.437443 0 0.549896 0.437406
[...]
POINT_DATA 2021
FIELD attributes 2
p 1 2021 float
2.00692 1.43582 2.36865 4.35931 0.0604257 0.0583108 -4.20419 -6.04311 -7.69214 -6.16324 -4.31866
0.496399 0.464237 0.111579 0.3266 0.174763 0.00323172 0.0270661 0.00539373 0.0143149 0.00956528
0.015532 0.00484014 0.00994364 0.000221904 0.00455703 -0.0013554 0.00234702 -0.00104793 0.0021418 -0.000462208
0.00213823 0.000556995 0.00333506 0 0 0.614314 0.609862 0.609711 0.614029 0.635185
0.634289 0.705108 0.701978 0.927036 0.923755 1.64079 1.76238 1.7776 2.23546 2.47597
-4.0588 1.36584 -4.11164 0.652697 -0.107769 -6.03289 0.572256 0.442377 0.189615 0.0291324
0.00719681 0.00936969 0.00557608 0.00105333 -0.00059955 -0.000274272 -0.000414377 0.00264751 0 0.609278
0.613259 0.631876 0.692949 0.902669 1.95636 2.02902 3.12751 3.87192 7.31905 -3.30803
-1.05632 4.57929 -5.72462 -5.71669 -2.25459 0.343522 0.830232 1.03301 0.928227 0.521389
0.517191 0.84835 0.880704 0.427561 0.16721 0.0229603 0.00221915 0.00642893 0.0043228 0.000431592
-0.000953643 -0.000428316 -0.000284315 0.00283907 0 0.608588 0.61207 0.628241 0.680268 0.86226
1.85041 2.13611 5.13414 5.58803 4.82539 32.57 36.4551 52.023 45.9784 4.76802
4.9145 3.39965 3.43475 2.69267 4.09827 0.841659 0.808243 0.787776 0.805532 1.39697
1.78592 1.84564 0.992841 0.482909 0.349896 0.12767 0.0135486 0.000435705 0.00692394 0.00616208
0.00261542 0.00119221 0.00149771 0.00207083 0.00350036 0 0.607712 0.610589 0.62381 0.665397
3.2523 3.75078 4.6827 4.76052 34.3596 32.6989 44.6245 50.7648 0.801701 0.781461
0.940059 1.70272 2.62743 1.14234 0.0807811 -4.88068 -5.30036 -2.74784 -0.227901 0.191213
0.0732368 -0.00557724 -0.0109455 -0.000953503 0.000914093 -0.00114199 -0.00168458 -0.000798908 0.000315566 0.00128928
0 0.606743 0.608968 0.618985 0.649425 0.740393 2.747 1.73248 5.1902 3.29379
0.559449 -0.671979 0.69807 0.311489 0.313176 0.143233 -1.70883 0.674053 0.281985 -0.973779
-0.393404 0.0980521 0.064719 -0.00299825 -0.0109322 -0.00103647 0.00150233 -0.000309238 -0.000844224 8.98077e-06
0.00106551 0.00157008 0 0.605779 0.607358 0.61414 0.633307 0.676929 0.692833 0.824081
1.15924 0.324976 0.622084 0.613366 0.61846 0.656679 0.625793 0.566856 0.384214 0.0598682
-0.564071 -0.377342 0.0462912 0.0592427 -0.00440725 -0.0151541 -0.00437024 -0.000724285 -0.00204882 -0.00233669
-0.00131342 -0.00013684 0.000441858 0 0.604915 0.605903 0.60972 0.566201 0.606692 0.606732
0.590726 0.495732 0.427223 0.0775226 -0.435106 -0.34855 -0.000896314 0.0480186 -0.00795349 -0.0187982
-0.006455 -0.00172285 -0.00264942 -0.00275295 -0.0016284 -0.000385333 0.000263516 0 0.604237 0.604731
0.606179 0.495226 0.605753 0.595178 0.570414 0.458093 0.42777 0.0868556 -0.364881 -0.332659
-0.0274114 0.0429382 -0.00834964 -0.019879 -0.00720672 -0.00213897 -0.0029689 -0.0030077 -0.00183538 -0.000565601
0.000128699 0 0.603799 0.60395 0.603838 0.599347 0.45697 0.564146 0.425617 0.0899496
-0.342521 -0.327521 -0.035703 0.0414101 -0.00844392 -0.0202958 -0.00756484 -0.00236761 -0.00312787 -0.00310459
-0.00188952 -0.000599972 0.000115375 7.90258e-05 0.603645 0.603668 0.602995 0.596829 0.563636 0.444678
-10.2846 -11.1428 -11.7902 70.4745 60.0561 43.8686 29.6668 2.9426 1.71851 4.42455
5.07725 4.13344 4.54745 6.17869 5.39508 2.025 1.73471 2.14151 2.9577 3.66465
3.35797 3.96182 2.2431 1.91015 6.05875 56.2528 39.4465 1.93573 2.26136 3.63373
4.72915 2.14988 -4.53064 -11.2068 -9.84436 -3.18391 8.46697 7.0027 11.8991 4.74859
17.4618 20.8141 9.13536 10.5157 2.5825 1.50242 1.0075 1.65742 19.7287 36.9127
5.61236 39.6459 20.3294 18.8201 -58.7569 -58.5452 -58.7537 68.4627 68.3752 47.5616
44.7963 3.41291 3.1124 -5.0396 0.340986 0.190297 -5.08934 2.58804 3.98543 3.9425
2.85494 1.8262 1.75472 1.62297 0.947557 0.757267 -1.36479 17.0062 28.1079 13.2987
7.27746 -56.483 -56.2773 -58.7479 -58.6717 13.8817 19.1197 18.4878 -46.2537 -42.6992
-44.3764 -45.11 -58.2989 -57.5822 -57.578 -57.7177 16.6062 15.8764 11.9967 -29.3639
-27.9811 -45.3719 -37.0569 -58.8862 -46.0361 -58.7014 -48.1167 11.0091 4.29375 10.5287
11.8744 9.11001 9.38513 9.67313 4.51858 11.1302 0.901358 0.734597 3.7133 3.46719
4.0642 4.31609 47.7551 68.3455 -58.7906 -56.4013 6.50999 11.1336 -51.4268 -52.729
-58.3879 4.48216 6.30168 6.476 6.50784 -31.4144 -40.0142 -49.4144 -29.7746 64.4072
60.7913 41.6551 41.4047 -44.0939 -56.0894 -11.5207 -8.56965 -0.42776 -24.5265 -42.4331
42.9846 44.3116 64.3099 66.4807 -51.7761 -49.9444 -50.7163 0.309712 -9.69439 -12.7271
-11.6974 -21.6777 -24.8806 -57.8189 44.04 21.8518 22.1459 11.7014 12.0178 12.1921
13.1428 22.0231 44.5056 10.7977 12.4606 11.9008 13.2405 -58.64 -58.6306 -58.1116
-58.0989 -57.4711 -56.8496 -56.4789 45.8189 66.8302 -58.294 -58.5605 -58.9572 -58.2008
-29.8007 -35.0002 -32.6879 -13.6832 -1.56447 -4.87717 -50.5484 -50.1919 -57.9924 -13.0795
0.16567 0.0813311 -13.3109 -58.2736 -56.8154 -51.2753 -12.4277 -10.1639 -3.66713 1.58889
-7.40026 -5.63844 -18.6866 -38.4104 -41.4773 -36.3723 -52.285 -53.2782 -53.0251 -4.16188
-17.5983 -18.3442 -4.77962 -56.0946 -52.0321 -56.1307 -3.58695 -9.31282 -16.6277 -11.5884
67.5327 46.8699 -54.1456 -54.3041 -56.7554 -56.6584 -56.1652 -53.6327 -57.0503 -53.2113
-55.9443 -58.9314 -59.062 -59.1037 -32.0974 -77.0305 -96.0523 -101.003 -103.246 -102.807
-48.5627 -50.1625 -54.2081 -48.2226 -49.9377 -98.166 -99.4698 -71.3039 -34.3378 -58.4368
-59.2514 -58.9378 -56.2646 -57.1528 -57.1935 -57.1179 -57.5392 7.14252 6.07107 8.95921
-56.0545 -55.725 -55.9479 -55.448 -55.5734 -55.8067 -56.2063 -55.0596 -55.0445 2.02324
1.81506 0.695942 1.20275 4.17176 4.55088 1.31142 -55.8174 -56.2999 -56.9298 5.80451
6.63985 2.78251 0.871702 3.1426 -32.0471 -38.0731 -37.3133 -31.6369 -54.4575 -54.9526
-57.8969 -57.5905 -54.9018 -55.7582 -38.9293 -43.2815 -43.1176 -36.9727 -46.0703 -50.1012
-53.1744 -53.3247 -52.1835 123.591 131.451 146.793 146.881 -58.1056 -56.1966 -56.4666
-57.8163 -57.6252 4.4923 2.21713 3.12751 4.72144 -9.75221 -3.93693 -5.86359 -8.88967
-11.7696 -39.0392 -36.9039 -25.616 -27.2958 -32.1051 -39.0547 -24.7928 -24.846 31.1067
41.2862 52.1269 37.9309 23.075 19.2841 34.261 26.1534 0.671495 0.829725 1.98834
34.0608 24.8921 17.0791 22.1611 2.86897 3.8133 4.4557 4.56512 3.66805 6.64844
6.75065 4.56744 -9.34634 -8.22872 -1.37474 -10.2284 14.6875 9.14749 10.8226 -54.6016
-56.8634 -56.9939 -54.7961 -82.6005 -81.3188 -84.5603 -47.8809 -12.668 -18.3166 -27.5646
-56.0225 -52.8335 -55.3592 -56.4583 -74.0907 -73.839 -58.4933 -59.7147 -49.4996 -47.979
-50.2235 -50.4262 3.74029 3.80381 -0.626796 6.00161 5.65014 4.65343 5.32751 5.74706
6.14779 -54.0951 -53.6155 -68.7065 -67.9157 79.0003 94.0952 85.6918 112.105 106.414
88.8363 90.1518 161.851 164.182 153.36 121.627 98.4068 104.347 97.3021 117.64
-12.8703 -26.9346 -31.2611 -5.82909 -26.1198 -52.0743 -41.7376 -6.305 93.7277 101.226
86.8077 78.2759 96.7012 88.3983 107.61 148.467 158.217 167.407 165.143 106.626
102.903 159.635 -32.6588 -8.01531 -38.339 -28.5427 -47.7244 140.207 140.076 115.599
110.58 110.241 115.505 139.6 138.983 108.13 167.231 170.837 172.007 172.298
173.709 186.648 186.836 174.816 173.268 -32.9163 -40.0484 -32.875 -56.4487 -50.8043
-42.6486 -41.8933 -40.6313 -25.5128 2.80309 -2.55893 -0.597281 173.388 175.332 187.189
172.36 186.505 187.149 175.22 172.169 179.598 181.761 170.111 168.879 179.895
167.878 171.095 182.42 -52.6717 -37.9207 -36.6796 -55.7179 -55.7857 -55.8669 -36.4595
-46.3111 -36.5357 -36.9623 -45.8917 -45.8633 -3.40715 -9.27479 -25.1932 -25.2123 -32.8549
-43.5182 -32.9027 -32.61 -42.9554 -21.1566 -18.8496 -20.6032 115.417 140.136 138.122
139.032 114.675 109.303 170.035 169.909 170.477 167.74 136.396 108.394 113.571
137.147 -57.0976 -54.1265 -52.7827 -52.6111 -55.6768 -46.1578 90.1391 93.4092 78.6612
-14.9047 -6.18632 -6.72167 -20.8266 54.5437 56.4055 70.005 73.6553 -55.9118 -55.1636
-55.4586 -55.9034 -57.0662 -57.3168 -57.4485 -57.5478 -56.078 -56.1666 -55.7261 -55.847
-134.808 -109.272 -77.7202 -95.6008 -97.9613 -99.0811 -99.073 -83.1892 -79.0095 -92.6059
-70.5177 -85.4198 -133.068 -136.696 -128.623 -96.2483 -97.0625 -54.7287 -54.1698 -54.854
-55.9907 -56.2826 -53.806 -53.7167 6.83339 7.38061 13.7795 16.4164 13.8729 -50.94
-50.209 -45.7156 -45.9574 -46.0511 -45.8477 -45.8206 -45.6046 12.9122 12.6489 16.8439
8.24515 8.04687 9.61924 10.1019 10.1275 8.4986 7.31516 8.06803 12.3887 15.7073
13.7223 0.776359 -0.838588 -3.02496 7.03289 6.21332 5.09116 6.41853 7.14006 -52.4889
-53.3455 -56.3115 -55.6529 -48.6521 -49.5988 13.6676 15.6377 17.0484 -46.7176 -49.6332
-49.7659 -46.4305 -45.5865 11.3382 11.0811 11.1235 9.53704 6.8376 -6.99882 -5.76085
5.47447 6.29982 6.26347 -48.5284 -48.8366 146.489 148.514 140.93 136.97 113.355
118.315 125.724 121.195 184.608 185.884 182.185 178.427 -55.6695 -55.6092 -53.006
-52.9116 169.637 183.359 185.057 172.994 174.45 186.572 171.029 182.144 169.625
179.279 -16.9105 -19.1563 -23.9123 -28.1344 -26.7465 -22.8481 -8.6612 -3.34394 -3.79427
-8.97605 -13.9918 -13.6116 -1.04062 -9.0707 -9.94029 -15.0288 -18.1555 -8.23725 -8.99032
-24.9609 -20.2406 -9.65752 -0.780547 -3.05223 6.07221 -3.45418 6.05488 6.81926 3.35513
3.89042 4.61434 4.17538 7.72477 6.10021 3.94889 5.8058 -18.9088 -15.9887 -26.3208
-21.4523 -56.4568 -58.1855 -58.7632 -58.6217 3.02709 3.09602 5.05479 5.53667 4.29378
4.89645 -14.5786 -40.3184 -57.2352 -65.4379 -53.2663 -31.9203 -58.9296 10.7618 10.2157
10.2389 -2.4512 0.211643 11.9705 17.2225 9.50138 23.8011 20.6822 10.4694 1.68692
6.82235 8.31303 13.1035 11.5448 6.78332 -53.4833 -44.0159 -49.8708 -13.0637 -43.894
-24.9525 -60.6061 -83.7035 108.708 92.7556 106.215 108.388 112.761 111.896 172.882
172.006 173.257 172.573 171.275 185.963 185.964 185.199 -57.9445 -58.1689 174.486
-56.1965 -56.195 -57.1421 -57.307 -57.0182 -55.7323 -149.991 -136.838 -136.735 -133.51
-157.669 -136.651 -132.759 -133.071 -119.794 -115.153 -80.4368 -73.1602 -73.5245 -70.8945
-119.525 -121.294 -56.7795 -55.7801 -54.6738 -57.1588 9.53745 7.16814 10.7058 8.24593
11.0253 12.0581 12.4314 13.4065 14.2011 -55.2925 -54.3682 -56.2724 -55.0673 -53.102
-52.8399 -52.9481 -54.8897 -5.97216 -0.48071 -1.41866 -4.60097 9.17259 9.54313 6.79581
5.83963 7.55403 9.53742 8.77812 6.70235 1.29266 8.14412 7.03437 6.87972 8.69198
10.4259 9.24079 12.0857 11.3624 -54.7149 -55.1371 -55.1282 -55.2541 -55.4065 -55.2602
-54.7611 -52.7116 -54.0404 -54.0491 -54.067 -51.0326 -52.422 -73.7581 -72.9895 -57.599
-59.8829 -77.5662 -68.4046 -77.4848 -123.923 -128.513 -136.138 -79.5048 -97.5582 -107.388
-80.3676 -98.9002 128.76 113.596 148.526 151.75 -54.5626 -53.7685 -54.8993 -54.8929
-53.1036 143.89 167.876 146.148 -48.9337 -48.0994 -48.536 -49.3088 -49.1156 -49.1336
-49.0606 -47.5795 -8.04465 -9.32349 -11.851 -10.9714 -14.8305 -16.9868 -19.1179 -16.9152
-17.8325 74.8184 85.5174 -58.4957 51.2489 76.5401 65.0072 75.5841 61.0483 13.8838
10.9694 45.5854 36.5704 8.31823 9.16231 3.62172 5.28491 5.09316 7.76553 6.69576
7.064 7.44828 8.2507 -52.7064 -52.2614 -51.9885 -52.5811 -1.01684 -0.501218 -1.07304
2.27404 5.69694 5.13845 7.09559 6.52447 -50.9026 -51.3074 -51.0318 138.2 136.282
171.188 184.78 189.086 189.373 186.863 185.339 -55.7548 -55.455 -55.7749 -55.5861
-53.1493 -45.536 -46.3623 -46.9905 -46.1993 -46.5301 -47.8199 -56.1242 -56.1505 -56.7399
-57.2748 -56.97 -56.9541 -57.113 -56.7216 -55.0096 -115.736 -111.377 -135.091 -111.645
-134.366 -122.497 -123.944 -133.756 -56.2321 -57.4392 -55.9034 -54.4808 13.7405 12.3596
11.3412 12.5279 12.7446 13.3958 -36.7366 -36.2187 -31.4019 -30.8655 -41.7207 -42.2441
-46.4188 -46.0343 -51.1023 -51.1502 -45.4975 -52.1104 -51.7483 -6.16909 -0.942257 -11.4257
0.68417 2.11984 8.00696 7.5395 7.86541 4.29763 10.6772 7.34471 8.75739 10.2264
10.8704 10.7634 10.9041 12.6716 12.3418 2.39444 12.4059 14.7995 15.9674 3.89936
3.40957 3.14758 3.82619 -58.8851 -58.048 -52.8427 -56.4807 -44.6159 -44.1082 -40.0664
-44.4356 -45.8276 -49.8802 -51.0682 -49.5447 -49.7521 -49.5263 -47.0472 -52.183 -47.1523
4.21445 -48.244 -49.513 141.007 131.816 129.412 129.458 129.838 114.353 106.933
188.662 188.135 187.14 -50.6899 -51.0133 -1.25969 -0.690007 0.341142 -29.5479 -30.4754
186.059 186.894 180.371 183.331 181.878 181.507 -33.1852 -29.0079 -3.02387 -7.64769
-5.77753 -3.0622 -24.6515 -13.4934 -10.0869 -13.2838 -19.7198 -4.58518 80.8628 56.5112
60.849 21.066 21.4337 68.0109 110.702 10.1702 7.20404 -2.27415 -2.53237 6.85654
7.65165 7.9384 6.13195 6.58568 24.5427 16.3075 -0.396932 19.7708 -1.74331 3.48951
8.17395 8.09508 68.0175 110.205 -54.6569 -55.7569 18.1284 91.5657 109.025 100.402
92.4527 108.068 109.181 126.59 134.33 143.204 -55.8028 81.6023 73.5861 50.4096
12.5905 18.6476 16.819 -75.4046 -56.8622 -56.8557 -56.8591 -55.31 -55.2404 -59.9778
-55.4773 -59.9076 -60.5151 23.4832 -6.55906 5.98611 10.6138 10.8435 -1.4038 -1.50802
-2.62603 -55.5338 -54.0489 -1.01394 2.54005 2.84612 -57.4964 -56.9257 -56.0936 7.98551
7.67481 4.1498 -56.5737 41.6779 49.674 -66.6255 -58.9475 17.4989 15.0549 8.9734
6.89197 5.05494 8.4976 6.94375 -54.0846 -54.0481 -52.8644 -52.7857 -55.7637 -52.1471
-51.6657 -54.5191 -54.8068 -54.7956 -54.3064 -55.3665 -54.9515 -54.8086 -54.5672 4.48675
-51.6565 -57.7325 -56.6985 100.519 129.157 144.72 155.184 168.099 162.932 160.743
148.743 188.246 -52.7732 -53.6899 -51.9613 -7.35562 -10.388 -3.19806 -49.6227 -49.6498
-49.6164 -49.8843 -53.0935 -47.1819 -48.7008 -47.4807 -46.9966 -47.6969 28.8838 20.3161
-112.184 -119.781 -119.638 -120.273 -120.616 -74.0373 -96.6445 -74.041 13.4286 17.0807
-10.9012 12.0473 11.4896 -5.47364 -7.03943 4.08632 2.48573 0.976885 0.638655 -0.629908
-2.2435 -0.995006 4.13833 4.52738 0.603546 2.84219 4.49924 2.40824 1.32593 13.3632
17.6864 -50.0098 5.49403 12.7598 8.50804 16.4693 8.49506 11.1836 14.1954 15.9651
4.80057 5.00854 6.51152 5.92698 -2.07443 -4.00084 -6.25998 -6.1602 4.91328 1.69336
4.39452 9.44778 15.3299 16.525 8.23859 5.68844 3.06728 2.75394 7.19189 10.6552
11.3087 11.9518 11.094 5.72748 -3.52483 5.60236 -2.7674 3.23369 -3.53383 2.47509
11.0291 8.35188 12.4143 7.01721 9.50676 11.4405 10.8326 10.5312 7.97814 8.65113
9.17645 9.42826 7.94635 7.39596 7.41296 6.05627 -5.458 -8.96989 -7.18341 6.53228
5.9331 8.01022 6.29993 -9.18915 -10.9524 1.11652 7.0919 5.91845 -1.6458 5.69899
-137.046 -137.758 -138.032 10.2935 -55.5775 -54.5464 -54.5935 5.23615 9.90238 5.31253
8.38227 11.0266 -55.7335 -55.7033 -55.0648 -54.7566 -60.9227 -60.4183 -60.9051 -68.9654
-115.954 -119.77 -113.641 -120.485 -48.8822 -49.408 -47.3865 -47.0889 -47.3503 -47.0643
-14.6019 -14.6011 -17.0154 -52.5137 -52.3289 -52.0878 5.14322 1.5224 4.99575 4.96699
-51.8877 -52.3205 -52.4438 141.764 151.116 -55.2478 -50.6791 13.4032 13.9821 11.5734
7.19958 11.4548 18.7172 4.23576 3.35093 4.68984 3.69341 -53.2041 -57.2793 -57.0795
-55.3401 7.77302 15.0788 11.1232 4.10521 4.25526 10.1058 8.85318 9.53773 8.65053
10.4236 12.436 10.2885 5.8408 8.59685 8.24176 -54.0545 -50.0676 -48.4521 91.2467
80.2825 84.2418 66.7782 72.7608 -4.80441 -2.91689 0.333358 -1.44586 7.65814 8.16757
7.70978 8.29662 8.05288 7.54976 7.09793 116.845 106.805 94.7645 -73.9656 -57.3959
-56.117 -54.9151 -54.7797 -54.3791 -54.3819 163.482 139.763 161.891 162.001 7.74463
4.6283 10.7122 11.4234 7.22695 8.56455 7.45531 6.92526 6.17594 2.75855 -2.39641
4.78603 5.42797 6.01267 4.38008 6.69365 14.504 9.08647 -12.8185 15.6092 14.2838
7.64213 10.7498 16.0384 9.1758 -12.6696 -13.5894 -11.665 -2.83122 -4.86053 -13.1621
7.24883 5.31208 -14.7025 -16.3156 7.21614 4.87572 -0.992181 -3.87071 -54.945 -45.8633
13.1663 1.94968 0.274893 -0.121442 6.01758 5.57363 6.50902 6.09711 6.05336 5.63636
0.36088 6.30263 6.93576 -0.379337 5.75554 4.77769 7.22676 6.71888 6.14286 106.219
86.6906 122.033 123.818 5.23246 4.95986 3.50126 -55.1593 5.16196 6.1487 5.92622
-9.58065 -12.5557 -0.18804 6.30727 6.79642 5.43978 8.12329 5.2491 6.94431 3.93521
37.1439 -53.1246 -55.259 -54.7408 -54.7196 -54.7805 -2.87812 -4.24264 -12.555 -12.4239
-12.446 -3.40747 9.42152 3.15473 6.00118 7.0892 2.62227 2.40595 0.133983 -0.830849
-10.8705 -5.18165 -4.07256 -11.2433 -4.13119 -12.1155 5.65176 -11.3456 -12.3816 -2.41395
1.24118 6.41223 6.42409 5.84979 8.90674 0.306977 6.71205 -3.09999 -1.08012 4.39374
-0.71227 7.29339 4.90492 -9.89937 9.07813 -0.621705 6.20498 1.06242 1.45734 4.85857
5.21767 4.29854 5.01622 3.15793 7.70978 8.96216 5.5094 6.12243 1.0036 3.48253
11.1336 5.5881 0.866859 -0.534291 3.67319 173.156 176.98 176.118 181.03 169.13
168.1 172.681 179.951 180.943 69.5599 73.7624 54.9219 -56.1638 -41.4654 -38.5827
-36.8303 -30.9028 -43.7702 -51.8299 -51.4792 -55.2449 -46.7735 100.763 154.479 162.117
155.257 146.997 -56.6154 -56.2119 -56.5538 -56.3213 -55.8359 -56.2809 -54.9234 -55.2265
-55.0685 4.07806 -0.215242 171.242 -18.2968 186.019 190.267 189.414 -51.3175 -47.2844
182.755 185.886 186.062 -16.4075 -51.0188 85.2756 -55.0807 -55.2086 -55.4554 -55.4273
-49.4316 189.389 -2.30296 189.507 185.526 189.1 7.39391 -64.2469 110.626 109.938
-55.9162 4.61882 -51.7129 -53.0126 -51.8267 -138.274 138.744 -54.9356 159.21 -51.9491
-120.696 -120.614 72.292 6.99708 2.64767 168.088 164.701 -15.4026 139.848 191.11
190.006 185.41 189.459 190.795 189.79 172.799 191.166 186.786 189.96 191.2
0.61433 0.609868 0.635174 0.704239 0.918002 1.62137 2.20659 -3.98723 1.35293 0.025558
-4.09929 -5.86893 0.409098 0.0901446 -0.00178268 0.0051914 0.0102924 0.00569359 0.0010589 -0.00057139
-0.000325599 0.000199444 0.00111154 0.000603884 -54.0395 -52.3048 -133.956 -134.511 -47.917 -48.3722
-49.0338 -47.7592 -48.2563 -48.9606 -49.6101 -47.2676 -95.2088 -74.8286 -48.753 -47.1178
-74.2671 -48.677 -51.1296 -51.4841 -50.6037 -99.553 -111.187 -129.459 -119.768 -119.588

U 3 2021 float
20.0064 -0.0457474 -0.215809 20.044 -0.0306866 -0.0739789 19.9291 -0.00640047 -0.0965078 19.9358 -0.0558212
-0.606744 20.0174 -0.0593068 0.0399841 20.0177 -0.0592016 0.0400165 20.168 -0.0781595 0.057551
20.2327 -0.0863243 0.0655923 20.2782 -0.0912706 0.149325 20.2906 -0.115999 0.26378 20.2096
-0.117287 0.208603 19.9546 -0.0472903 0.0198989 19.9967 -0.0546506 0.0183791 20.0037 -0.052924
0.00699326 19.8534 -0.0246999 0.0177504 19.8522 -0.0214712 0.0142068 20.0059 -0.0526382 0.0019075
19.8546 -0.0200533 0.00972303 20.0044 -0.051827 0.000528287 19.8537 -0.0184024 0.00882312 20.0026
-0.0510102 -3.51664e-06 19.8523 -0.01685 0.00852014 20.0011 -0.050254 -0.000284353 19.8512 -0.0155143
0.00828349 19.9996 -0.0495742 -0.000465691 19.8501 -0.0143514 0.00806609 19.998 -0.0489213 -0.000591691
19.8489 -0.0132902 0.0078767 19.9963 -0.0482804 -0.000690097 19.8479 -0.0123255 0.00767641 19.9946
-0.0476534 -0.000726122 19.8468 -0.0114411 0.00758614 19.9927 -0.0470055 -0.000816314 19.8458 -0.0105107
0.00730926 19.8453 -0.010027 0.00700971 19.9923 -0.0467974 -0.00085648 19.9996 -0.000340942 3.12833e-05
20 0 0 20 0 0 19.9996 -0.000341039 7.86686e-05 19.9983
-0.000787135 9.38385e-05 19.9984 -0.000796799 0.000278642 19.9942 -0.00154875 0.00036789 19.9941 -0.00151397
0.000999472 19.9788 -0.00279386 0.000334744 19.9796 -0.00311615 0.00357447 19.9465 -0.00544785 -0.00906853
19.9363 -0.00621293 -0.00798793 19.939 0.00229216 -0.014342 19.9278 -0.00540136 -0.0295259 19.9062
0.0052852 -0.0610359 20.2333 -0.0726064 0.00189763 20.0486 -0.0288431 -0.0566078 20.2354 -0.0716911
0.00518328 19.9275 -0.089211 0.030645 20.0246 -0.118464 0.0819765 20.2324 -0.0862929 0.0650735
19.8554 -0.0299227 0.023483 19.3078 0.119933 0.0102076 19.3399 0.117393 0.011306 19.3679
0.11169 0.0113561 19.389 0.107409 0.0120366 19.4073 0.103633 0.012538 19.4242 0.100051
0.0127114 19.4401 0.0966657 0.0127152 19.4551 0.0934804 0.012642 19.4694 0.090443 0.0125007
19.4825 0.0875669 0.0123863 19.4972 0.0847579 0.012105 19.5059 0.0833149 0.0118459 20
0 0 19.9996 -0.00034165 0.000137296 19.9985 -0.000795327 0.000490198 19.9945 -0.00152045
0.00171842 19.9801 -0.00323914 0.00602831 19.9198 -0.00875195 0.0107131 19.9195 -0.00792933 0.000977603
19.85 -0.0165382 -0.0957938 19.7933 -0.020474 -0.068185 19.956 -0.0510759 -1.02508 20.4353
-0.067872 -0.934162 20.2164 -0.0534478 -0.508636 19.9307 -0.0558437 -0.636235 20.3092 -0.163696
0.45317 20.3095 -0.16458 0.45663 20.1003 -0.250236 0.581946 19.9904 -0.239528 0.300986