# vtk DataFile Version 2.0
tracks
ASCII
DATASET POLYDATA
POINTS 2585 float
-1.001 -0.05 0.0011 -0.900789 -0.0500216 0.00109731 -0.800577 -0.0500431 0.00109463 -0.700366 -0.0500645
0.00109196 -0.600155 -0.0500859 0.00108929 -0.499943 -0.0501073 0.00108663 -0.424945 -0.0501112 0.00107892
-0.349947 -0.0501521 0.00106878 -0.274949 -0.0501927 0.00105874 -0.19995 -0.0502329 0.00104879 -0.124952
-0.0502727 0.00103894 -0.0499538 -0.0502821 0.00103916 0.0250446 -0.0502909 0.0010479 0.100043 -0.0502998
0.0010567 0.175041 -0.0503088 0.00106558 0.25004 -0.0503178 0.00107454 0.400037 -0.0503117 0.00109063
0.550035 -0.0503099 0.00110485 0.700032 -0.050308 0.00111926 0.85003 -0.0503061 0.00113386 1.00003
-0.0503041 0.00114865 1.15003 -0.0503148 0.00115585 1.30002 -0.0503204 0.00116033 1.45002 -0.0503261
0.00116482 1.60002 -0.0503318 0.00116934 1.75002 -0.0503375 0.00117387 1.90002 -0.0503461 0.00117673
2.05002 -0.0503525 0.00117866 2.20001 -0.050359 0.0011806 2.35001 -0.0503655 0.00118254 2.50001
-0.0503719 0.00118448 2.65001 -0.0503799 0.00118552 2.80001 -0.0503879 0.00118621 2.95001 -0.050396
0.0011869 3.10001 -0.050404 0.00118759 3.25001 -0.0504121 0.00118827 3.40001 -0.0504199 0.00118856
3.55001 -0.0504287 0.00118913 3.70001 -0.0504375 0.0011897 3.85001 -0.0504463 0.00119028 4.00001
-0.0504551 0.00119085 4.15 -0.0504628 0.00119093 4.3 -0.0504723 0.00119159 4.45 -0.0504819
0.00119226 4.6 -0.0504915 0.00119293 4.75 -0.050501 0.00119359 4.9 -0.0505086 0.00119359
5.05 -0.0505187 0.00119442 5.2 -0.0505287 0.00119524 5.35 -0.0505388 0.00119607 5.5
-0.0505489 0.00119689 5.65 -0.0505564 0.00119685 5.8 -0.0505667 0.00119783 5.95 -0.0505771
0.00119882 6.1 -0.0505875 0.0011998 6.25 -0.0505979 0.00120079 6.4 -0.0506053 0.00120072
6.55 -0.0506159 0.00120184 6.7 -0.0506265 0.00120296 6.85 -0.050637 0.00120408 7
-0.0506476 0.0012052 7.15 -0.050655 0.00120511 7.3 -0.0506657 0.00120634 7.45 -0.0506765
0.00120756 7.6 -0.0506872 0.00120879 7.75 -0.050698 0.00121003 7.9 -0.0507053 0.00120992
8.05 -0.0507161 0.00121124 8.2 -0.0507269 0.00121255 8.35 -0.0507378 0.00121388 8.5
-0.0507486 0.0012152 8.65 -0.0507559 0.00121508 8.8 -0.0507668 0.00121648 8.95 -0.0507777
0.00121787 9.1 -0.0507886 0.00121927 9.25 -0.0507996 0.00122067 9.4 -0.0508067 0.00122054
9.55 -0.0508636 0.00122264 9.7 -0.0509716 0.00122544 9.85 -0.0511307 0.00122897 10
-0.0513408 0.0012332 -1.001 -0.05 0.0537316 -0.900807 -0.0501059 0.0535765 -0.800614 -0.0502121
0.0533943 -0.700421 -0.0503417 0.0531782 -0.600229 -0.0505022 0.0529263 -0.500035 -0.0506935 0.0526388
-0.425004 -0.0509416 0.0524158 -0.349973 -0.051279 0.0521256 -0.274943 -0.0516637 0.0518562 -0.199912
-0.052082 0.0516292 -0.124879 -0.0524846 0.0514847 -0.0498864 -0.0527508 0.0515211 0.0251064 -0.0529708
0.0516867 0.100099 -0.053186 0.0519207 0.175092 -0.0534105 0.0522031 0.250087 -0.0536301 0.0525206
0.400077 -0.0540157 0.0531563 0.550067 -0.0543988 0.0536716 0.700057 -0.0547406 0.0541381 0.850047
-0.0550412 0.0545555 1.00003 -0.0553085 0.0549232 1.14671 -0.0556756 0.0552014 1.29339 -0.0560112
0.0554609 1.44007 -0.056344 0.0556867 1.58675 -0.0566743 0.0558789 1.704 -0.0569362 0.0560055
1.71321 -0.0569576 0.0560141 1.72241 -0.056979 0.0560226 1.73161 -0.0570005 0.056031 1.74081
-0.0570222 0.0560393 1.75002 -0.0570439 0.0560475 1.90002 -0.0574 0.0561807 2.05002 -0.0577518
0.0562965 2.20001 -0.0580997 0.0563947 2.35001 -0.0584438 0.0564753 2.50001 -0.058784 0.0565383
2.65001 -0.0591294 0.0565901 2.80001 -0.0594745 0.0566353 2.95001 -0.0598187 0.0566727 3.10001
-0.0601621 0.0567025 3.25001 -0.0605047 0.0567245 3.40001 -0.0608482 0.0567416 3.55001 -0.0611931
0.0567579 3.70001 -0.0615365 0.0567721 3.85001 -0.0618784 0.0567844 4.00001 -0.0622188 0.0567945
4.15 -0.062557 0.0568023 4.3 -0.062899 0.0568111 4.45 -0.0632395 0.0568191 4.6
-0.0635785 0.0568264 4.75 -0.0639161 0.0568329 4.9 -0.0642488 0.0568372 5.05 -0.0645869
0.0568434 5.2 -0.0649236 0.0568492 5.35 -0.065259 0.0568546 5.5 -0.065593 0.0568596
5.65 -0.0659202 0.056862 5.8 -0.0662538 0.056867 5.95 -0.0665863 0.0568718 6.1
-0.0669175 0.0568763 6.25 -0.0672474 0.0568805 6.4 -0.0675694 0.0568819 6.55 -0.0678986
0.0568862 6.7 -0.0682265 0.0568903 6.85 -0.0685533 0.0568943 7 -0.0688789 0.0568982
7.15 -0.0691957 0.0568988 7.3 -0.0695203 0.0569027 7.45 -0.0698437 0.0569065 7.6
-0.0701659 0.0569101 7.75 -0.0704869 0.0569137 7.9 -0.0707986 0.0569138 8.05 -0.0711185
0.0569174 8.2 -0.0714372 0.0569211 8.35 -0.0717547 0.0569247 8.5 -0.0720711 0.0569284
8.65 -0.0723778 0.0569283 8.8 -0.0726929 0.056932 8.95 -0.0730069 0.0569355 9.1
-0.0733196 0.056939 9.25 -0.0736312 0.0569424 9.4 -0.0739327 0.0569419 9.55 -0.0742434
0.0569453 9.7 -0.0745535 0.0569487 9.85 -0.0748632 0.0569521 10 -0.0751723 0.0569554
-1.001 -0.05 0.106363 -0.900818 -0.0500778 0.106138 -0.800636 -0.0501534 0.105866 -0.700455
-0.0502556 0.105547 -0.600274 -0.0504279 0.105004 -0.50009 -0.0506701 0.104242 -0.424996 -0.0509571
0.103655 -0.349901 -0.0513054 0.103049 -0.274807 -0.0516579 0.10251 -0.199711 -0.0519559 0.10208
-0.124607 -0.0522981 0.101977 -0.0496048 -0.0525458 0.102089 0.0253973 -0.0527386 0.102318 0.100399
-0.0529184 0.10263 0.175401 -0.0531186 0.103026 0.250411 -0.0533389 0.103508 0.400346 -0.0537445
0.104508 0.550283 -0.0541486 0.105381 0.700219 -0.0545138 0.106166 0.850157 -0.0548483 0.106784
1.00009 -0.0551518 0.107234 1.15007 -0.0555907 0.107499 1.30006 -0.0558859 0.107796 1.45005
-0.0561304 0.108072 1.60003 -0.0563689 0.108316 1.75002 -0.0566014 0.108527 1.90002 -0.0569079
0.108671 2.05002 -0.057151 0.108826 2.20001 -0.0573884 0.108965 2.35001 -0.0576232 0.109087
2.50001 -0.0578556 0.109192 2.65001 -0.0581443 0.109261 2.80001 -0.0583911 0.109329 2.95001
-0.0586367 0.109389 3.10001 -0.0588815 0.109441 3.25001 -0.0591256 0.109486 3.40001 -0.0594127
0.109521 3.55001 -0.0596634 0.109554 3.70001 -0.0599122 0.109585 3.85001 -0.0601594 0.109615
4 -0.0604051 0.109642 4.15 -0.0606861 0.109668 4.3 -0.0609368 0.109689 4.45
-0.0611856 0.10971 4.6 -0.0614329 0.109729 4.75 -0.0616786 0.109749 4.9 -0.0619533
0.109771 5.05 -0.062202 0.109786 5.2 -0.0624491 0.109801 5.35 -0.0626947 0.109815
5.5 -0.062939 0.109829 5.65 -0.0632072 0.10985 5.8 -0.0634535 0.109861 5.95
-0.0636982 0.109872 6.1 -0.0639416 0.109882 6.25 -0.0641838 0.109892 6.4 -0.0644461
0.109912 6.55 -0.0646894 0.109919 6.7 -0.0649314 0.109927 6.85 -0.0651722 0.109934
7 -0.0654118 0.109942 7.15 -0.0656682 0.10996 7.3 -0.0659084 0.109966 7.45
-0.0661474 0.109971 7.6 -0.0663852 0.109976 7.75 -0.0666218 0.109981 7.9 -0.0668725
0.109999 8.05 -0.0671095 0.110003 8.2 -0.0673452 0.110006 8.35 -0.0675798 0.11001
8.5 -0.0678132 0.110013 8.65 -0.0680586 0.110031 8.8 -0.068292 0.110033 8.95
-0.0685242 0.110036 9.1 -0.0687552 0.110038 9.25 -0.0689851 0.11004 9.4 -0.0692248
0.110057 9.55 -0.069455 0.110058 9.7 -0.0696846 0.110059 9.85 -0.0699137 0.110059
10 -0.0701423 0.11006 -1.001 -0.05 0.158995 -0.900796 -0.0500883 0.15877 -0.800593
-0.0501926 0.158424 -0.700392 -0.0503539 0.157688 -0.600196 -0.0505851 0.156475 -0.499992 -0.0508778
0.154633 -0.42472 -0.051485 0.153029 -0.349436 -0.0519525 0.152106 -0.274149 -0.0523491 0.151541
-0.198859 -0.0527436 0.151246 -0.123699 -0.0530604 0.151297 -0.0487804 -0.0531824 0.151459 0.0261371
-0.0532597 0.151938 0.101053 -0.0533983 0.152643 0.175967 -0.0535637 0.153441 0.250943 -0.0537164
0.154269 0.400783 -0.0539258 0.155691 0.550624 -0.0544297 0.15687 0.700468 -0.054899 0.157624
0.850313 -0.0552946 0.158223 1.00014 -0.0556591 0.158655 1.15012 -0.0561597 0.1589 1.30009
-0.0565162 0.159178 1.45007 -0.0567797 0.159446 1.60005 -0.0569667 0.159701 1.75002 -0.0571478
0.159923 1.90002 -0.0574038 0.160078 2.05002 -0.057596 0.160244 2.20002 -0.0577761 0.160396
2.35001 -0.0579475 0.160532 2.50001 -0.0581166 0.160652 2.65001 -0.0583425 0.160735 2.80001
-0.0585263 0.160817 2.95001 -0.0587078 0.160892 3.10001 -0.0588877 0.160961 3.25001 -0.059067
0.161021 3.40001 -0.0592893 0.161071 3.55001 -0.0594753 0.16112 3.70001 -0.0596586 0.161168
3.85001 -0.0598396 0.161213 4 -0.0600191 0.161257 4.15 -0.0602338 0.1613 4.3
-0.0604184 0.161337 4.45 -0.0606005 0.161375 4.6 -0.0607803 0.161412 4.75 -0.0609587
0.161448 4.9 -0.0611656 0.161487 5.05 -0.061347 0.161519 5.2 -0.0615262 0.161551
5.35 -0.0617035 0.161583 5.5 -0.0618794 0.161614 5.65 -0.062079 0.161651 5.8
-0.0622569 0.16168 5.95 -0.0624328 0.161708 6.1 -0.0626071 0.161735 6.25 -0.0627801
0.161762 6.4 -0.0629728 0.161799 6.55 -0.063147 0.161824 6.7 -0.0633195 0.161849
6.85 -0.0634904 0.161873 7 -0.0636601 0.161898 7.15 -0.0638462 0.161933 7.3
-0.0640166 0.161956 7.45 -0.0641854 0.161978 7.6 -0.0643528 0.162 7.75 -0.064519
0.162022 7.9 -0.0646989 0.162056 8.05 -0.0648654 0.162077 8.2 -0.0650305 0.162098
8.35 -0.0651943 0.162118 8.5 -0.0653569 0.162139 8.65 -0.0655309 0.162173 8.8
-0.0656936 0.162192 8.95 -0.0658546 0.162211 9.1 -0.0660143 0.16223 9.25 -0.0661729
0.162249 9.4 -0.0663408 0.162282 9.55 -0.0664996 0.1623 9.7 -0.0666576 0.162317
9.85 -0.0668149 0.162334 10 -0.0669717 0.162351 -1.001 -0.05 0.211626 -0.947632
-0.0500805 0.211469 -0.894264 -0.0501655 0.211279 -0.840896 -0.0502551 0.211054 -0.787529 -0.0503894
0.210764 -0.724306 -0.0506332 0.210285 -0.67943 -0.050911 0.209635 -0.634559 -0.051246 0.208755
-0.589691 -0.0515849 0.207738 -0.544826 -0.0519288 0.206584 -0.499928 -0.0522789 0.205289 -0.469492
-0.0525724 0.204237 -0.439057 -0.052876 0.203121 -0.408619 -0.0531642 0.202133 -0.378176 -0.053438
0.201265 -0.330155 -0.0538547 0.200029 -0.289084 -0.054195 0.199117 -0.248008 -0.0545349 0.19842
-0.206929 -0.054879 0.198037 -0.165848 -0.0551878 0.197944 -0.124884 -0.0554216 0.198115 -0.049612
-0.0557265 0.198823 0.0256574 -0.0558623 0.19977 0.100922 -0.05597 0.20105 0.176185 -0.0561111
0.20241 0.251487 -0.0562456 0.203564 0.252245 -0.0562468 0.203573 0.253002 -0.0562479 0.203583
0.253759 -0.056249 0.203593 0.254517 -0.0562502 0.203603 0.255283 -0.0562513 0.203613 0.32928
-0.0563627 0.204578 0.40328 -0.056476 0.205419 0.47728 -0.0565914 0.206134 0.551282 -0.0567358
[...]
POINT_DATA 2585
FIELD attributes 4
age 1 2585 float
0 0.00501122 0.0100224 0.0150336 0.0200449 0.0250561 0.0288056 0.0325533 0.036301 0.0400488 0.0437965
0.0475449 0.0512906 0.0550362 0.0587817 0.0625272 0.070024 0.0775229 0.0850219 0.0925208 0.10002
0.10752 0.115019 0.122519 0.130019 0.137519 0.145019 0.152519 0.160019 0.167518 0.175018
0.182518 0.190018 0.197517 0.205017 0.212517 0.220017 0.227516 0.235016 0.242516 0.250015
0.257515 0.265015 0.272515 0.280014 0.287514 0.295014 0.302514 0.310014 0.317513 0.325013
0.332513 0.340013 0.347512 0.355012 0.362512 0.370012 0.377512 0.385011 0.392511 0.400011
0.407511 0.415011 0.42251 0.43001 0.43751 0.44501 0.45251 0.460009 0.467509 0.475009
0.482509 0.490009 0.497508 0.505008 0.512508 0.520008 0.527507 0.535005 0.542503 0.55
0 0.00502606 0.0100534 0.0150748 0.020088 0.0250931 0.0288322 0.0325654 0.0362919 0.0400115
0.0437249 0.0474311 0.0511303 0.0548277 0.058525 0.062224 0.0696347 0.0770706 0.0845213 0.0919869
0.099467 0.106795 0.114124 0.121455 0.128787 0.134649 0.135109 0.135569 0.136029 0.136489
0.136949 0.14445 0.15195 0.159449 0.166948 0.174446 0.181945 0.189442 0.196939 0.204436
0.211933 0.219431 0.226927 0.234424 0.241921 0.249419 0.256917 0.264414 0.271911 0.279409
0.286907 0.294405 0.301903 0.309401 0.316899 0.324398 0.331897 0.339395 0.346894 0.354392
0.361891 0.36939 0.376889 0.384388 0.391887 0.399387 0.406887 0.414386 0.421885 0.429385
0.436885 0.444385 0.451885 0.459385 0.466885 0.474385 0.481887 0.489387 0.496887 0.504388
0.511889 0.519391 0.526892 0.534392 0.541893 0.549394 0 0.00502805 0.0100579 0.015082
0.0200995 0.0251107 0.0288577 0.0325977 0.0363285 0.0400543 0.0437705 0.0474751 0.051174 0.0548718
0.0585687 0.0622651 0.0696633 0.0770887 0.0845321 0.0919976 0.0994849 0.106988 0.114492 0.122
0.129508 0.137018 0.144533 0.152042 0.15955 0.167058 0.174565 0.182077 0.189583 0.197089
0.204594 0.212099 0.21961 0.227115 0.234621 0.242126 0.249631 0.257143 0.264648 0.272154
0.279659 0.287165 0.294678 0.302184 0.309689 0.317195 0.324701 0.332215 0.339721 0.347227
0.354733 0.36224 0.369753 0.37726 0.384766 0.392273 0.39978 0.407294 0.414801 0.422308
0.429815 0.437322 0.444837 0.452344 0.459852 0.467359 0.474867 0.482382 0.489889 0.497397
0.504905 0.512413 0.519929 0.527437 0.534945 0.542453 0.549961 0 0.00503015 0.0100664
0.0150997 0.0201272 0.0251498 0.0289156 0.0326695 0.0364115 0.040143 0.0438578 0.0475527 0.0512422
0.0549306 0.0586183 0.0623094 0.0696964 0.0771198 0.0845737 0.0920441 0.0995358 0.107048 0.114561
0.12208 0.129602 0.137125 0.144655 0.152178 0.159701 0.167224 0.174746 0.182274 0.189795
0.197315 0.204836 0.212356 0.219883 0.227403 0.234923 0.242444 0.249964 0.257491 0.265012
0.272533 0.280053 0.287574 0.295102 0.302623 0.310144 0.317665 0.325187 0.332715 0.340236
0.347758 0.355279 0.362801 0.37033 0.377852 0.385374 0.392895 0.400417 0.407947 0.415469
0.422991 0.430514 0.438036 0.445566 0.453088 0.460611 0.468134 0.475657 0.483187 0.49071
0.498233 0.505756 0.513279 0.52081 0.528334 0.535857 0.543381 0.550904 0 0.00268276
0.0053672 0.00805333 0.0107388 0.0139181 0.0161733 0.0184282 0.0206822 0.0229355 0.0251897 0.0267154
0.0282392 0.02976 0.0312778 0.0336666 0.0357018 0.0377313 0.0397553 0.0417737 0.0437807 0.0474594
0.0511395 0.0548208 0.0585086 0.0622093 0.0622466 0.0622839 0.0623212 0.0623585 0.0623963 0.0660417
0.0696969 0.0733621 0.0770374 0.0807226 0.0813098 0.081897 0.0824843 0.0830716 0.0836447 0.0868066
0.0899712 0.0931384 0.0963081 0.0994799 0.107001 0.114523 0.122049 0.129581 0.137118 0.144661
0.152198 0.159735 0.167271 0.174808 0.182351 0.189886 0.197421 0.204956 0.212491 0.220033
0.227567 0.235102 0.242637 0.250172 0.257714 0.265249 0.272784 0.280319 0.287855 0.295397
0.302933 0.310469 0.318004 0.32554 0.333083 0.340619 0.348155 0.355692 0.363228 0.370771
0.378308 0.385844 0.393381 0.400917 0.408461 0.415998 0.423535 0.431072 0.438609 0.446154
0.453691 0.461228 0.468766 0.476303 0.483848 0.491386 0.498923 0.506461 0.513999 0.521544
0.529082 0.536621 0.544159 0.551697 0 0.00126445 0.00252928 0.0037948 0.00506111 0.00632825
0.0101158 0.0139117 0.0177193 0.0215334 0.0253301 0.0269103 0.0284804 0.0300437 0.0315998 0.0329837
0.0333135 0.033643 0.0339721 0.034301 0.0346298 0.0364581 0.0382793 0.0400915 0.0418986 0.0436961
0.0454967 0.0473018 0.0491189 0.0509409 0.0527671 0.052932 0.0530969 0.0532618 0.0534268 0.0536005
0.0552652 0.0569326 0.0586027 0.0602757 0.0619512 0.0656469 0.0693596 0.0730903 0.0768318 0.0805822
0.0843459 0.0881086 0.091872 0.0956381 0.0994066 0.106942 0.11448 0.122022 0.129568 0.137118
0.144684 0.152237 0.15979 0.167342 0.174895 0.182455 0.190007 0.197559 0.20511 0.212661
0.220219 0.22777 0.235321 0.242872 0.250423 0.257982 0.265533 0.273085 0.280636 0.288188
0.295747 0.303298 0.31085 0.318402 0.325954 0.333513 0.341065 0.348617 0.356169 0.363722
0.371282 0.378834 0.386386 0.393939 0.401491 0.409052 0.416604 0.424157 0.43171 0.439263
0.446823 0.454376 0.461929 0.469483 0.477036 0.484597 0.49215 0.499703 0.507257 0.514811
0.522372 0.529925 0.537479 0.545033 0.552586 0 0.00126545 0.00253142 0.00379791 0.00506491
0.00633244 0.00822684 0.0101236 0.0120229 0.013925 0.0158292 0.0177466 0.019669 0.0215923 0.0235189
0.0254577 0.0264289 0.0273974 0.0283616 0.0293213 0.0302808 0.0307553 0.0312282 0.0316991 0.0321679
0.032679 0.0331359 0.0335908 0.0340437 0.0344945 0.0349429 0.0358533 0.0367606 0.0376637 0.0385626
0.0394525 0.0403418 0.0412295 0.0421165 0.0430032 0.0438904 0.0452624 0.0466414 0.0480276 0.0493747
0.0528855 0.0547144 0.0565571 0.058411 0.0602716 0.0621331 0.0640044 0.0658768 0.0677515 0.0696288
0.0715101 0.0733988 0.0752819 0.0771613 0.0790426 0.0809289 0.0840369 0.087149 0.0902628 0.0933781
0.0960148 0.0967961 0.0975777 0.0983593 0.0991412 0.0999231 0.107516 0.115112 0.122711 0.130314
0.137921 0.145553 0.15316 0.160762 0.168364 0.175966 0.183587 0.191186 0.198784 0.206381
0.213979 0.221595 0.229192 0.236788 0.244384 0.251981 0.259595 0.267192 0.274787 0.282383
0.289979 0.297592 0.305188 0.312783 0.320378 0.327974 0.335586 0.343181 0.350776 0.358371
0.365967 0.373577 0.381172 0.388766 0.396361 0.403956 0.411565 0.41916 0.426754 0.434348
0.441943 0.449551 0.457145 0.464739 0.472333 0.479928 0.487534 0.495128 0.502722 0.510315
0.517909 0.525514 0.533108 0.540701 0.548294 0.555888 0 0.00126279 0.00252626 0.00379076
0.00505643 0.00632329 0.00823333 0.0101454 0.0120611 0.0139803 0.0159048 0.0178221 0.0197523 0.0216954
0.0236513 0.0256296 0.0266296 0.0276304 0.0286316 0.0296321 0.0306445 0.0308918 0.0311391 0.0313861
0.0316311 0.031821 0.032572 0.0333106 0.0340362 0.034748 0.035452 0.0358991 0.0363446 0.0367885
0.0372309 0.0376674 0.0381049 0.0385395 0.0389716 0.0394031 0.039832 0.0402639 0.0406958 0.0411278
0.0415604 0.0419955 0.0424308 0.0428656 0.0433006 0.0437365 0.0441747 0.0450514 0.0459374 0.0468336
0.0477413 0.0486662 0.0494284 0.0501894 0.0509529 0.0517198 0.0526664 0.0528041 0.0529419 0.0530798
0.0532177 0.0533557 0.0543091 0.0552615 0.056216 0.0571725 0.0581315 0.0590997 0.0600669 0.0610351
0.0620065 0.0629795 0.0649476 0.0669103 0.0688677 0.0708294 0.0727749 0.0747063 0.0766525 0.0786137
0.0805789 0.0825487 0.0865083 0.0904595 0.0943848 0.0982954 0.102209 0.110036 0.117829 0.125552
0.133217 0.140886 0.148584 0.15626 0.163931 0.171598 0.179263 0.186944 0.194608 0.202269
0.209929 0.217588 0.225262 0.232921 0.240578 0.248234 0.25589 0.26356 0.271215 0.27887
0.286524 0.294178 0.301843 0.309497 0.317149 0.324801 0.332453 0.340115 0.347766 0.355417
0.363066 0.370716 0.378375 0.386024 0.393673 0.40132 0.408968 0.416624 0.424271 0.431918
0.439563 0.447209 0.454862 0.462508 0.470152 0.477796 0.48544 0.49309 0.500734 0.508377
0.516018 0.52366 0.531307 0.538949 0.54659 0.55423 0.561871 0 0.00126442 0.00252948
0.0037952 0.00506156 0.00632917 0.00824623 0.0101657 0.0120885 0.0140175 0.0159588 0.0169288 0.0179018
0.0188779 0.0198572 0.0208397 0.0218274 0.0228232 0.0238279 0.0248416 0.0258658 0.0263834 0.0269028
0.0274259 0.0279525 0.0284856 0.0287764 0.0290687 0.0293633 0.0296605 0.0297583 0.030058 0.0303591
0.030661 0.0309627 0.0312727 0.0313693 0.0314658 0.0315625 0.0316594 0.0317301 0.0317657 0.0318012
0.0318368 0.0318723 0.0319061 0.0320692 0.0322322 0.032395 0.0325577 0.0327217 0.0329008 0.0330796
0.0332578 0.0334332 0.0335625 0.0336677 0.0337724 0.0338765 0.0339797 0.0340844 0.0341946 0.0343032
0.0344105 0.0345166 0.0346035 0.0346585 0.0347132 0.0347676 0.0348217 0.0348745 0.0349718 0.0350687
0.0351651 0.0352611 0.0353549 0.0354775 0.0355987 0.0357185 0.0358371 0.0360315 0.0361311 0.0362304
0.0363292 0.036428 0.036517 0.0366047 0.0366926 0.0367805 0.0368683 0.0370301 0.0371504 0.0372704
0.0373903 0.03751 0.0376281 0.0378468 0.0380639 0.038281 0.0384986 0.0387127 0.0389304 0.0391476
0.039365 0.0395829 0.0398006 0.0400212 0.0402401 0.0404593 0.0406788 0.0408991 0.0411191 0.0413387
0.0415587 0.0417795 0.0420027 0.0422271 0.0424497 0.0426725 0.0428959 0.0431204 0.0434527 0.0437866
0.0441261 0.0444715 0.0446332 0.0447966 0.0449604 0.0451245 0.0452891 0.0454548 0.0459427 0.0464229
0.0469033 0.0473791 0.0478763 0.0483945 0.0489021 0.0494107 0.0499242 0.0504451 0.0505093 0.0505736
0.050638 0.0507026 0.0507659 0.0517808 0.0528383 0.0539415 0.0550062 0.0560835 0.0572897 0.0584738
0.0596597 0.0608516 0.0620435 0.0624371 0.0628299 0.0632225 0.0636153 0.0640569 0.0648726 0.0656801
0.0664852 0.0672926 0.0680987 0.0681932 0.0682877 0.0683819 0.0684759 0.0685693 0.0696715 0.0707641
0.0718548 0.0729433 0.074026 0.0751805 0.0763568 0.0775369 0.0787183 0.0799023 0.0813293 0.0827573
0.0841913 0.0856301 0.0874286 0.0882296 0.0890271 0.0898209 0.0906112 0.0913973 0.09591 0.100398
0.104811 0.109132 0.113322 0.121499 0.129613 0.137654 0.145623 0.153509 0.16127 0.169031
0.176789 0.184544 0.192297 0.200045 0.207794 0.215541 0.223286 0.231029 0.237621 0.244212
0.250802 0.257391 0.264085 0.265212 0.266339 0.267465 0.268592 0.269719 0.277452 0.285187
0.292922 0.300657 0.308391 0.316117 0.323852 0.331586 0.339321 0.347055 0.354775 0.362509
0.370243 0.377977 0.385711 0.393423 0.401157 0.40889 0.416623 0.424357 0.432063 0.439796
0.447528 0.455261 0.462993 0.470694 0.478425 0.486157 0.493888 0.50162 0.509315 0.517045
0.524776 0.532506 0.540236 0.547925 0.555653 0.563381 0.571109 0.578838 0 0.00125411
0.00250917 0.00376554 0.00502335 0.00628274 0.00821405 0.0101481 0.0120849 0.0140287 0.0159869 0.0169596
0.0179362 0.0189168 0.0199014 0.0208902 0.0218847 0.02289 0.0239069 0.0249356 0.0259773 0.0265059
0.0270377 0.0275763 0.0281216 0.0286759 0.0292414 0.0298146 0.0304009 0.0310011 0.0316278 0.0319467
0.0322655 0.032585 0.0329055 0.0332405 0.0333127 0.0333849 0.0334571 0.0335294 0.0335881 0.0336633
0.0337371 0.03381 0.0338824 0.0339436 0.0341151 0.0342832 0.0344481 0.0346095 0.0347764 0.0349189
0.0350586 0.0351958 0.0353296 0.0354488 0.0355692 0.035689 0.0358083 0.035926 0.0360379 0.0361551
0.0362693 0.0363806 0.0364912 0.0366376 0.0367447 0.0368515 0.0369582 0.0370646 0.0371622 0.0373611
0.03756 0.0377623 0.0379676 0.0384092 0.0386377 0.038866 0.0390924 0.039317 0.0395371 0.0400001
0.0404573 0.0409111 0.041362 0.0418083 0.0422651 0.0427081 0.0431545 0.043604 0.0440565 0.0445309
0.0449992 0.0454792 0.0459639 0.0464567 0.0472942 0.0481506 0.0490201 0.0498854 0.0518098 0.0529362
0.0540633 0.0552139 0.0563845 0.0575892 0.0588515 0.0600866 0.0613053 0.0625335 0.0637668 0.0646355
0.0654926 0.0663492 0.0672007 0.0682815 0.0686225 0.0689638 0.0693052 0.0696471 0.0699893 0.0706627
0.0713366 0.0720115 0.0726874 0.0734952 0.0740419 0.0745884 0.0751346 0.0756795 0.0762218 0.0774675
0.078717 0.0799744 0.0812323 0.0824899 0.084986 0.087486 0.0899546 0.0923801 0.0947778 0.0996166
0.104406 0.109055 0.113567 0.117927 0.121368 0.124798 0.128216 0.131621 0.135777 0.140514
0.145191 0.14981 0.154373 0.158878 0.166638 0.174407 0.182175 0.189942 0.197708 0.205452
0.213216 0.22098 0.228743 0.236506 0.244239 0.252 0.259761 0.267523 0.275284 0.283008
0.290768 0.298528 0.306288 0.314048 0.321766 0.329525 0.337284 0.345043 0.352802 0.360513
0.368271 0.376028 0.383786 0.391544 0.399249 0.407005 0.414762 0.422518 0.430275 0.437974
0.445729 0.453483 0.461238 0.468993 0.476687 0.48444 0.492193 0.499946 0.5077 0.515389
0.52314 0.530891 0.538642 0.546394 0.554077 0.561825 0.569573 0.577321 0.58507 0
0.00125903 0.00251875 0.00377914 0.00504095 0.00630441 0.00823309 0.0101647 0.0120993 0.0140412 0.0159973
0.0169702 0.0179472 0.0189283 0.0199135 0.0209031 0.0218976 0.0229027 0.0239194 0.0249479 0.0259894
0.0265185 0.0270503 0.027588 0.0281323 0.0286859 0.0292489 0.0298195 0.0303997 0.0309924 0.0316146
0.0319307 0.0322475 0.0325647 0.0328819 0.0332116 0.0334494 0.0336859 0.0339204 0.0341489 0.0342456
0.0343493 0.0344519 0.0345535 0.0346539 0.034757 0.0349583 0.0351526 0.0353404 0.0355222 0.0356768
0.0357546 0.0358323 0.0359091 0.0359852 0.0360644 0.0360656 0.0360668 0.036068 0.0360692 0.0360704
0.0362147 0.0363575 0.036499 0.0366391 0.036844 0.0369201 0.0369961 0.0370719 0.0371476 0.0372195
0.0376771 0.0381399 0.0386162 0.0391004 0.0395144 0.0399759 0.0404266 0.0408759 0.0413274 0.0417872
0.0422632 0.0427295 0.0431924 0.0436577 0.0441327 0.0446254 0.0451086 0.0455861 0.046069 0.0465659
0.0476002 0.048657 0.0497258 0.0508145 0.0515745 0.0516477 0.0517207 0.0517937 0.0518667 0.0519396
0.0530701 0.0542256 0.0554083 0.056614 0.0578401 0.0591156 0.0603674 0.0615989 0.0628467 0.0640882
0.0647124 0.0653261 0.0659371 0.0665467 0.0671595 0.0677862 0.0684033 0.069011 0.0696202 0.0702353
0.0714865 0.0727477 0.0740057 0.0752586 0.076501 0.0772564 0.0780044 0.0787538 0.079505 0.0803449
0.080828 0.0813114 0.0817952 0.0822801 0.0827659 0.0852767 0.0877725 0.0902535 0.0926756 0.0950686
0.0998312 0.104544 0.109147 0.113637 0.117985 0.124962 0.131849 0.138615 0.145264 0.159243
0.163081 0.166918 0.170755 0.17459 0.17851 0.182405 0.1863 0.190195 0.194089 0.197983
0.205722 0.213465 0.221208 0.22895 0.236692 0.24442 0.252161 0.259901 0.267642 0.275382
0.283102 0.290842 0.298582 0.306322 0.314061 0.321775 0.329513 0.337253 0.344992 0.352731
0.360438 0.368176 0.375914 0.383652 0.391391 0.399092 0.406829 0.414566 0.422303 0.430041
0.437736 0.445472 0.453208 0.460944 0.46868 0.47637 0.484105 0.491839 0.499574 0.507309
0.514994 0.522727 0.530461 0.538194 0.545927 0.553607 0.561337 0.569067 0.576798 0.58453
0 0.00127992 0.00256048 0.0038423 0.00512559 0.00641038 0.00831681 0.0102258 0.0121375 0.0140556
0.0159859 0.016958 0.0179331 0.0189115 0.0198934 0.0208788 0.021873 0.0228762 0.0238892 0.0249122
0.0259474 0.0263892 0.0268327 0.0272795 0.0277297 0.0278535 0.028003 0.0281528 0.0283027 0.0284526
0.0286028 0.0291462 0.0296939 0.0302488 0.0308125 0.0313971 0.031472 0.0315469 0.0316217 0.0316966
0.0317617 0.0319791 0.0321964 0.0324136 0.0326306 0.0328511 0.0329308 0.0330105 0.03309 0.0331693
0.0332381 0.0334492 0.0336595 0.0338688 0.0340747 0.034287 0.0343494 0.0344113 0.0344728 0.0345339
0.0345869 0.0345921 0.0345973 0.0346025 0.0346077 0.0346129 0.0348283 0.0350392 0.0352456 0.0354446
0.0356352 0.0356568 0.0356783 0.0356998 0.0357213 0.0357432 0.0358452 0.0359462 0.0360461 0.0361474
0.0362921 0.0363857 0.0364788 0.0365712 0.0366627 0.0367518 0.0368554 0.0369583 0.0370607 0.0371633
0.0373113 0.0374106 0.0375097 0.0376088 0.0377087 0.0378062 0.0380181 0.038228 0.0384374 0.0386462
0.0388583 0.0390783 0.0392938 0.039505 0.0397162 0.0399301 0.0401462 0.0403607 0.0405742 0.0407883
0.0410049 0.041226 0.0414437 0.04166 0.0418766 0.0420942 0.0423131 0.0425304 0.0427476 0.0429651
0.043184 0.0436293 0.0440748 0.0445235 0.0449756 0.0454361 0.0459152 0.0463823 0.0468412 0.047303
0.0477784 0.0482614 0.0487425 0.0492237 0.0497087 0.0502017 0.0512185 0.0522412 0.0532768 0.0543666
0.0554728 0.0558193 0.0561661 0.0565139 0.0568632 0.0572309 0.0580417 0.0588521 0.059662 0.0604754
0.0612972 0.0624983 0.0636763 0.0648617 0.0660619 0.0672559 0.0684839 0.0696879 0.0708697 0.0720449
0.0732123 0.0736253 0.0740378 0.0744505 0.0748637 0.0752696 0.075598 0.0759266 0.0762553 0.0765843
0.0769222 0.0773544 0.0777869 0.0782198 0.0786531 0.0790867 0.0814343 0.0837839 0.0861325 0.0884509
0.0907419 0.0952556 0.0998218 0.104293 0.10862 0.112839 0.121151 0.129433 0.137652 0.145698
0.153574 0.161316 0.169058 0.176795 0.18453 0.192261 0.199989 0.207717 0.215442 0.223167
0.230889 0.237162 0.243434 0.249706 0.255977 0.262251 0.263696 0.265141 0.266587 0.268032
0.269477 0.27719 0.284905 0.29262 0.300335 0.30805 0.315757 0.323472 0.331187 0.338902
0.346617 0.354317 0.362032 0.369746 0.377461 0.385175 0.39287 0.400584 0.408298 0.416012
0.423726 0.431415 0.439128 0.446841 0.454555 0.462268 0.469952 0.477664 0.485377 0.493089
0.500801 0.508481 0.516192 0.523903 0.531614 0.539325 0.547 0.554709 0.562418 0.570127
0.577837 0 0.00127753 0.00255577 0.00383512 0.00511576 0.00639768 0.00829925 0.0102028 0.0121091
0.0140203 0.0159396 0.0169038 0.0178698 0.0188378 0.019808 0.0207805 0.0217543 0.022733 0.0237171
0.0247057 0.0256981 0.0266888 0.0276859 0.0286912 0.0296918 0.0307002 0.0307753 0.0308504 0.0309255
0.0310003 0.0310696 0.031992 0.0328949 0.0337773 0.0346385 0.0354972 0.0359451 0.0363908 0.0368344
0.0372769 0.0377139 0.0381525 0.0385885 0.0390238 0.0394583 0.039887 0.0403201 0.0407533 0.0411868
0.0416206 0.0420551 0.0424913 0.0429263 0.0433623 0.0437992 0.044238 0.0451161 0.0460027 0.046896
0.0477968 0.0487226 0.0496698 0.0506094 0.0515425 0.0524825 0.0534318 0.0541555 0.0548844 0.0556155
0.0563483 0.0574689 0.0576325 0.0577962 0.0579601 0.0581241 0.0582881 0.059272 0.0602553 0.0612389
0.0622223 0.0632046 0.0652051 0.0671923 0.0691689 0.0711551 0.0731387 0.0750973 0.0770822 0.079082
0.0810858 0.0830914 0.0871039 0.0911335 0.0951312 0.0990838 0.103031 0.105888 0.10875 0.111621
0.114484 0.117853 0.122817 0.127754 0.132663 0.137545 0.142401 0.150111 0.157824 0.165534
0.173242 0.180947 0.188641 0.196341 0.204041 0.211739 0.219435 0.227122 0.234815 0.242508
0.250199 0.257889 0.265572 0.273259 0.280946 0.288632 0.296317 0.303996 0.311679 0.319361
0.327042 0.334723 0.342398 0.350077 0.357755 0.365432 0.373108 0.38078 0.388455 0.396128
0.403801 0.411474 0.419143 0.426814 0.434484 0.442153 0.449822 0.457488 0.465155 0.472822
0.480488 0.488153 0.495816 0.50348 0.511143 0.518806 0.526468 0.534128 0.541788 0.549448
0.557107 0.564766 0 0.00127409 0.0025488 0.00382396 0.00510035 0.00637796 0.00827386 0.0101719
0.0120722 0.0139756 0.015883 0.0177923 0.0197068 0.0216262 0.0235503 0.0254824 0.0264532 0.0274211
0.028384 0.029342 0.0299595 0.0309778 0.0319886 0.0329888 0.0339789 0.0349572 0.0358662 0.0367718
0.0376733 0.0385718 0.0394613 0.040352 0.0412411 0.0421291 0.0430161 0.0439024 0.0456796 0.0474741
0.0492832 0.0511019 0.0529371 0.0537976 0.0546593 0.0555231 0.056389 0.0577298 0.0586236 0.0595192
0.0604166 0.0613158 0.0622165 0.0640921 0.0659707 0.0678519 0.0697358 0.0716217 0.0735172 0.0754049
0.0772936 0.0791838 0.0810749 0.084871 0.0886661 0.0924658 0.09627 0.100088 0.107787 0.115489
0.123145 0.130765 0.138399 0.146048 0.153695 0.16134 0.168983 0.176624 0.184271 0.191913
0.199554 0.207194 0.214832 0.222474 0.230112 0.237749 0.245385 0.25302 0.260659 0.268294
0.275929 0.283563 0.291196 0.298831 0.306465 0.314097 0.321728 0.329359 0.336993 0.344624
0.352254 0.359883 0.367512 0.375143 0.382772 0.3904 0.398027 0.405654 0.413283 0.42091
0.428536 0.436161 0.443786 0.451413 0.459038 0.466662 0.474285 0.481908 0.489533 0.497156
0.504778 0.5124 0.52002 0.527643 0.535263 0.542884 0.550504 0.558123 0 0.00127141
0.00254321 0.00381554 0.00508846 0.00636198 0.0101414 0.0139323 0.0177224 0.0215091 0.0252996 0.0257901
0.0262794 0.0267678 0.0272553 0.0276845 0.0290744 0.0304591 0.0318386 0.033213 0.0345849 0.036426
0.0382576 0.0400724 0.0418831 0.0436887 0.0454999 0.0473085 0.0491185 0.0509372 0.0527673 0.0546035
0.0564412 0.0582817 0.0601251 0.0619711 0.0656732 0.0693893 0.0731213 0.0768683 0.0806189 0.0843894
0.0881579 0.0919268 0.0956976 0.0994708 0.107 0.114529 0.122062 0.12961 0.137174 0.144752