# vtk DataFile Version 2.0
tracks
ASCII
DATASET POLYDATA
POINTS 2590 float
-1.001 -0.05 0.0011 -0.900789 -0.0500214 0.00109732 -0.800577 -0.0500428 0.00109464 -0.700366 -0.0500641
0.00109197 -0.600155 -0.0500854 0.00108931 -0.499943 -0.0501066 0.00108665 -0.424945 -0.0501104 0.00107897
-0.349947 -0.050151 0.00106886 -0.274949 -0.0501913 0.00105884 -0.19995 -0.0502312 0.00104892 -0.124952
-0.0502707 0.00103908 -0.0499538 -0.0502799 0.00103932 0.0250446 -0.0502884 0.00104803 0.100043 -0.0502969
0.00105681 0.175041 -0.0503055 0.00106566 0.25004 -0.0503141 0.00107459 0.400037 -0.0503078 0.0010906
0.550035 -0.0503055 0.00110475 0.700032 -0.0503032 0.00111908 0.85003 -0.0503008 0.0011336 1.00003
-0.0502984 0.00114831 1.15003 -0.0503088 0.00115549 1.30002 -0.0503141 0.00115992 1.45002 -0.0503194
0.00116436 1.60002 -0.0503247 0.00116882 1.75002 -0.05033 0.0011733 1.90002 -0.0503383 0.00117615
2.05002 -0.0503444 0.00117805 2.20001 -0.0503505 0.00117994 2.35001 -0.0503566 0.00118184 2.50001
-0.0503627 0.00118375 2.65001 -0.0503705 0.00118479 2.80001 -0.0503782 0.00118545 2.95001 -0.0503858
0.00118611 3.10001 -0.0503935 0.00118677 3.25001 -0.0504012 0.00118743 3.40001 -0.0504089 0.0011877
3.55001 -0.0504173 0.00118825 3.70001 -0.0504257 0.00118881 3.85001 -0.0504342 0.00118936 4.00001
-0.0504426 0.00118991 4.15 -0.0504501 0.00118998 4.3 -0.0504593 0.00119063 4.45 -0.0504685
0.00119128 4.6 -0.0504777 0.00119193 4.75 -0.0504869 0.00119258 4.9 -0.0504944 0.00119256
5.05 -0.0505041 0.00119337 5.2 -0.0505137 0.00119419 5.35 -0.0505234 0.001195 5.5
-0.0505332 0.00119581 5.65 -0.0505405 0.00119575 5.8 -0.0505505 0.00119672 5.95 -0.0505605
0.0011977 6.1 -0.0505705 0.00119867 6.25 -0.0505806 0.00119965 6.4 -0.0505878 0.00119956
6.55 -0.0505981 0.00120067 6.7 -0.0506083 0.00120178 6.85 -0.0506185 0.00120289 7
-0.0506288 0.001204 7.15 -0.050636 0.0012039 7.3 -0.0506464 0.00120511 7.45 -0.0506568
0.00120633 7.6 -0.0506672 0.00120756 7.75 -0.0506776 0.00120878 7.9 -0.0506847 0.00120866
8.05 -0.0506952 0.00120997 8.2 -0.0507057 0.00121128 8.35 -0.0507162 0.00121259 8.5
-0.0507267 0.0012139 8.65 -0.0507338 0.00121378 8.8 -0.0507444 0.00121517 8.95 -0.050755
0.00121655 9.1 -0.0507656 0.00121794 9.25 -0.0507762 0.00121933 9.4 -0.0507832 0.0012192
9.55 -0.0508387 0.00122132 9.7 -0.050944 0.00122419 9.85 -0.0510993 0.00122781 10
-0.0513045 0.00123219 -1.001 -0.05 0.0537316 -0.900807 -0.0501045 0.0535767 -0.800614 -0.050209
0.0533947 -0.700421 -0.0503367 0.0531791 -0.600229 -0.0504949 0.0529278 -0.500035 -0.0506835 0.0526412
-0.425004 -0.0509289 0.052419 -0.349973 -0.0512631 0.0521296 -0.274943 -0.0516442 0.0518613 -0.199912
-0.0520584 0.0516352 -0.124879 -0.0524567 0.0514913 -0.0498864 -0.0527187 0.0515282 0.0251065 -0.052934
0.0516932 0.100099 -0.0531443 0.0519264 0.175092 -0.0533636 0.0522077 0.250087 -0.0535781 0.052524
0.400077 -0.0539543 0.0531579 0.550067 -0.0543282 0.0536716 0.700057 -0.0546612 0.0541366 0.850047
-0.0549533 0.0545526 1.00003 -0.0552123 0.0549191 1.14652 -0.0555708 0.055196 1.293 -0.0558981
0.0554543 1.43949 -0.0562227 0.0556792 1.58597 -0.0565447 0.0558706 1.70319 -0.0568004 0.0559968
1.71255 -0.0568216 0.0560055 1.72192 -0.0568429 0.0560141 1.73129 -0.0568643 0.0560227 1.74065
-0.0568858 0.0560311 1.75002 -0.0569074 0.0560395 1.90002 -0.0572556 0.056172 2.05002 -0.0575992
0.0562874 2.20001 -0.057939 0.0563851 2.35001 -0.0582749 0.0564651 2.50001 -0.0586069 0.0565276
2.65001 -0.0589444 0.056579 2.80001 -0.0592812 0.0566236 2.95001 -0.0596172 0.0566605 3.10001
-0.0599524 0.0566897 3.25001 -0.0602868 0.0567112 3.40001 -0.0606226 0.0567277 3.55001 -0.0609594
0.0567435 3.70001 -0.0612947 0.0567572 3.85001 -0.0616286 0.0567688 4.00001 -0.0619611 0.0567784
4.15 -0.0622918 0.0567855 4.3 -0.0626259 0.0567937 4.45 -0.0629586 0.0568011 4.6
-0.0632899 0.0568078 4.75 -0.0636198 0.0568136 4.9 -0.0639452 0.0568172 5.05 -0.0642757
0.0568227 5.2 -0.0646048 0.0568278 5.35 -0.0649327 0.0568325 5.5 -0.0652592 0.0568368
5.65 -0.0655794 0.0568385 5.8 -0.0659058 0.0568428 5.95 -0.0662309 0.0568468 6.1
-0.0665549 0.0568506 6.25 -0.0668776 0.0568541 6.4 -0.0671929 0.0568547 6.55 -0.067515
0.0568583 6.7 -0.0678359 0.0568618 6.85 -0.0681557 0.0568651 7 -0.0684743 0.0568683
7.15 -0.0687847 0.0568681 7.3 -0.0691023 0.0568714 7.45 -0.0694189 0.0568745 7.6
-0.0697344 0.0568776 7.75 -0.0700487 0.0568805 7.9 -0.0703541 0.0568799 8.05 -0.0706673
0.056883 8.2 -0.0709794 0.0568861 8.35 -0.0712904 0.0568892 8.5 -0.0716003 0.0568923
8.65 -0.0719008 0.0568917 8.8 -0.0722094 0.0568949 8.95 -0.0725169 0.056898 9.1
-0.0728233 0.056901 9.25 -0.0731285 0.056904 9.4 -0.073424 0.056903 9.55 -0.0737283
0.056906 9.7 -0.0740321 0.056909 9.85 -0.0743354 0.0569121 10 -0.0746381 0.0569151
-1.001 -0.05 0.106363 -0.900818 -0.0500764 0.106139 -0.800636 -0.0501504 0.105867 -0.700455
-0.0502507 0.105548 -0.600274 -0.0504204 0.105007 -0.50009 -0.0506594 0.104247 -0.424996 -0.0509434
0.103662 -0.349901 -0.0512882 0.103058 -0.274807 -0.0516369 0.102522 -0.199711 -0.051931 0.102094
-0.124607 -0.0522686 0.101992 -0.0496047 -0.0525119 0.102105 0.0253975 -0.0526998 0.102334 0.100399
-0.0528748 0.102646 0.175401 -0.05307 0.103042 0.250411 -0.0532852 0.103522 0.400346 -0.0536812
0.10452 0.550283 -0.0540757 0.10539 0.70022 -0.0544317 0.106173 0.850157 -0.0547573 0.106789
1.00009 -0.0550523 0.107238 1.15007 -0.0554824 0.107501 1.30006 -0.0557697 0.107796 1.45005
-0.0560072 0.108071 1.60003 -0.0562386 0.108313 1.75002 -0.0564641 0.108522 1.90002 -0.0567642
0.108666 2.05002 -0.0570002 0.10882 2.20001 -0.0572304 0.108958 2.35001 -0.0574582 0.109078
2.50001 -0.0576834 0.109182 2.65001 -0.0579657 0.10925 2.80001 -0.0582052 0.109317 2.95001
-0.0584435 0.109376 3.10001 -0.0586812 0.109428 3.25001 -0.0589181 0.109472 3.40001 -0.0591989
0.109505 3.55001 -0.0594425 0.109538 3.70001 -0.0596842 0.109568 3.85001 -0.0599243 0.109596
4 -0.060163 0.109623 4.15 -0.0604381 0.109648 4.3 -0.0606818 0.109668 4.45
-0.0609238 0.109688 4.6 -0.0611642 0.109707 4.75 -0.0614032 0.109725 4.9 -0.061672
0.109746 5.05 -0.0619141 0.109761 5.2 -0.0621545 0.109774 5.35 -0.0623935 0.109788
5.5 -0.0626312 0.109801 5.65 -0.062894 0.10982 5.8 -0.0631337 0.10983 5.95
-0.063372 0.10984 6.1 -0.063609 0.109849 6.25 -0.0638449 0.109859 6.4 -0.0641019
0.109877 6.55 -0.064339 0.109884 6.7 -0.0645748 0.10989 6.85 -0.0648093 0.109897
7 -0.0650428 0.109903 7.15 -0.0652942 0.109921 7.3 -0.0655284 0.109925 7.45
-0.0657613 0.10993 7.6 -0.065993 0.109934 7.75 -0.0662237 0.109938 7.9 -0.0664696
0.109955 8.05 -0.0667007 0.109957 8.2 -0.0669305 0.10996 8.35 -0.0671592 0.109963
8.5 -0.0673868 0.109965 8.65 -0.0676275 0.109982 8.8 -0.0678552 0.109983 8.95
-0.0680816 0.109985 9.1 -0.0683069 0.109986 9.25 -0.068531 0.109988 9.4 -0.0687662
0.110003 9.55 -0.0689907 0.110004 9.7 -0.0692146 0.110004 9.85 -0.069438 0.110004
10 -0.0696609 0.110004 -1.001 -0.05 0.158995 -0.900796 -0.0500869 0.15877 -0.800593
-0.0501894 0.158425 -0.700392 -0.0503484 0.15769 -0.600196 -0.0505768 0.15648 -0.499992 -0.0508661
0.154643 -0.42472 -0.0514692 0.153042 -0.349437 -0.0519319 0.152122 -0.274149 -0.0523234 0.151561
-0.19886 -0.0527124 0.151268 -0.123699 -0.0530237 0.151323 -0.0487803 -0.0531412 0.151487 0.0261375
-0.0532134 0.151968 0.101054 -0.0533465 0.15267 0.175969 -0.0535063 0.153466 0.250945 -0.0536537
0.154291 0.400784 -0.0538536 0.155708 0.550625 -0.0543461 0.156881 0.700469 -0.0548048 0.157633
0.850313 -0.055191 0.158229 1.00014 -0.0555464 0.158658 1.15012 -0.0560377 0.158901 1.30009
-0.0563857 0.159177 1.45007 -0.0566424 0.159443 1.60005 -0.0568239 0.159696 1.75002 -0.0569996
0.159916 1.90002 -0.0572508 0.16007 2.05002 -0.0574375 0.160234 2.20002 -0.0576122 0.160385
2.35001 -0.0577782 0.16052 2.50001 -0.0579417 0.160638 2.65001 -0.0581629 0.160721 2.80001
-0.0583411 0.160802 2.95001 -0.058517 0.160876 3.10001 -0.0586914 0.160943 3.25001 -0.0588651
0.161003 3.40001 -0.0590829 0.161052 3.55001 -0.0592633 0.1611 3.70001 -0.0594411 0.161147
3.85001 -0.0596168 0.161191 4 -0.0597909 0.161234 4.15 -0.0600014 0.161276 4.3
-0.0601807 0.161313 4.45 -0.0603575 0.161349 4.6 -0.0605322 0.161385 4.75 -0.0607054
0.16142 4.9 -0.0609083 0.161459 5.05 -0.0610846 0.16149 5.2 -0.0612588 0.161521
5.35 -0.0614311 0.161551 5.5 -0.0616021 0.161581 5.65 -0.0617978 0.161618 5.8
-0.0619709 0.161645 5.95 -0.062142 0.161672 6.1 -0.0623116 0.161698 6.25 -0.0624799
0.161724 6.4 -0.062669 0.161759 6.55 -0.0628386 0.161783 6.7 -0.0630064 0.161807
6.85 -0.0631728 0.16183 7 -0.063338 0.161853 7.15 -0.0635208 0.161888 7.3
-0.0636867 0.161909 7.45 -0.0638511 0.16193 7.6 -0.064014 0.161951 7.75 -0.0641759
0.161972 7.9 -0.0643526 0.162005 8.05 -0.0645149 0.162025 8.2 -0.0646757 0.162045
8.35 -0.0648352 0.162064 8.5 -0.0649936 0.162083 8.65 -0.0651645 0.162116 8.8
-0.065323 0.162135 8.95 -0.0654799 0.162153 9.1 -0.0656354 0.162171 9.25 -0.0657899
0.162188 9.4 -0.0659548 0.16222 9.55 -0.0661095 0.162237 9.7 -0.0662634 0.162253
9.85 -0.0664166 0.162269 10 -0.0665693 0.162285 -1.001 -0.05 0.211626 -0.947635
-0.0500796 0.21147 -0.89427 -0.0501637 0.211279 -0.840906 -0.0502522 0.211055 -0.787542 -0.0503851
0.210765 -0.724341 -0.050627 0.210287 -0.679458 -0.0509029 0.209637 -0.63458 -0.0512357 0.208759
-0.589705 -0.0515723 0.207744 -0.544833 -0.0519138 0.206592 -0.499928 -0.0522614 0.205299 -0.469378
-0.052554 0.204245 -0.43883 -0.0528567 0.203127 -0.408277 -0.0531437 0.202137 -0.37772 -0.0534163
0.201269 -0.329407 -0.0538318 0.200029 -0.288486 -0.0541676 0.199124 -0.24756 -0.0545029 0.198437
-0.206631 -0.0548422 0.19806 -0.165699 -0.0551458 0.19797 -0.124884 -0.0553749 0.198143 -0.0496127
-0.0556736 0.198852 0.0256568 -0.0558034 0.199799 0.100922 -0.0559053 0.201077 0.176185 -0.0560405
0.202433 0.251487 -0.0561691 0.203582 0.251996 -0.0561698 0.203588 0.252504 -0.0561706 0.203595
0.253013 -0.0561713 0.203602 0.253521 -0.056172 0.203608 0.254034 -0.0561728 0.203615 0.328281
-0.0562791 0.20458 0.40253 -0.0563874 0.20542 0.476781 -0.0564979 0.206133 0.551032 -0.0566369
[...]
POINT_DATA 2590
FIELD attributes 4
age 1 2590 float
0 0.00501121 0.0100224 0.0150336 0.0200448 0.025056 0.0288056 0.0325533 0.036301 0.0400488 0.0437965
0.0475449 0.0512906 0.0550362 0.0587817 0.0625273 0.070024 0.077523 0.085022 0.0925209 0.10002
0.10752 0.11502 0.122519 0.130019 0.137519 0.145019 0.152519 0.160019 0.167519 0.175018
0.182518 0.190018 0.197518 0.205017 0.212517 0.220017 0.227517 0.235016 0.242516 0.250016
0.257516 0.265015 0.272515 0.280015 0.287514 0.295014 0.302514 0.310014 0.317513 0.325013
0.332513 0.340013 0.347513 0.355012 0.362512 0.370012 0.377512 0.385011 0.392511 0.400011
0.407511 0.415011 0.42251 0.43001 0.43751 0.44501 0.45251 0.460009 0.467509 0.475009
0.482509 0.490009 0.497508 0.505008 0.512508 0.520008 0.527507 0.535005 0.542503 0.55
0 0.00502598 0.0100532 0.0150745 0.0200877 0.0250927 0.0288318 0.032565 0.0362915 0.0400112
0.0437246 0.0474309 0.0511302 0.0548277 0.0585252 0.0622244 0.0696353 0.0770715 0.0845225 0.0919882
0.0994685 0.106787 0.114107 0.121427 0.128749 0.13461 0.135078 0.135546 0.136015 0.136483
0.136951 0.144452 0.151952 0.159451 0.16695 0.174448 0.181947 0.189444 0.196941 0.204438
0.211935 0.219433 0.22693 0.234427 0.241924 0.249421 0.256919 0.264416 0.271914 0.279411
0.286909 0.294408 0.301906 0.309404 0.316902 0.3244 0.331899 0.339397 0.346896 0.354394
0.361893 0.369393 0.376891 0.38439 0.39189 0.399389 0.406889 0.414388 0.421888 0.429387
0.436887 0.444387 0.451887 0.459387 0.466887 0.474388 0.481889 0.489389 0.49689 0.50439
0.511891 0.519393 0.526894 0.534394 0.541895 0.549396 0 0.00502796 0.0100577 0.0150817
0.0200991 0.0251102 0.0288572 0.0325972 0.036328 0.0400539 0.0437701 0.0474748 0.0511739 0.0548718
0.0585688 0.0622654 0.0696639 0.0770895 0.0845331 0.0919988 0.0994861 0.106989 0.114494 0.122001
0.12951 0.137019 0.144534 0.152043 0.159551 0.167059 0.174566 0.182079 0.189584 0.19709
0.204595 0.2121 0.219612 0.227117 0.234622 0.242127 0.249632 0.257144 0.26465 0.272155
0.279661 0.287166 0.294679 0.302185 0.309691 0.317197 0.324703 0.332216 0.339722 0.347228
0.354735 0.362241 0.369755 0.377261 0.384768 0.392274 0.399781 0.407295 0.414802 0.422309
0.429816 0.437323 0.444838 0.452345 0.459853 0.46736 0.474868 0.482383 0.48989 0.497398
0.504906 0.512414 0.51993 0.527438 0.534946 0.542454 0.549962 0 0.00503007 0.0100662
0.0150994 0.0201267 0.0251492 0.0289149 0.0326688 0.0364108 0.0401424 0.0438572 0.0475523 0.0512419
0.0549305 0.0586183 0.0623097 0.069697 0.0771206 0.0845747 0.0920451 0.0995368 0.107049 0.114562
0.12208 0.129603 0.137126 0.144655 0.152178 0.159701 0.167224 0.174746 0.182274 0.189795
0.197315 0.204836 0.212356 0.219883 0.227403 0.234923 0.242443 0.249963 0.25749 0.265011
0.272532 0.280052 0.287573 0.295101 0.302622 0.310143 0.317664 0.325185 0.332713 0.340234
0.347756 0.355277 0.362799 0.370328 0.377849 0.385371 0.392893 0.400415 0.407944 0.415466
0.422988 0.43051 0.438033 0.445562 0.453085 0.460607 0.46813 0.475653 0.483183 0.490706
0.498229 0.505752 0.513275 0.520806 0.528329 0.535852 0.543376 0.550899 0 0.00268254
0.00536676 0.00805266 0.0107379 0.0139161 0.0161716 0.0184267 0.0206811 0.0229346 0.0251891 0.0267205
0.0282499 0.0297763 0.0312998 0.033703 0.0357307 0.0377527 0.0397693 0.0417804 0.0437801 0.047459
0.0511392 0.0548208 0.0585089 0.0622097 0.0622348 0.0622598 0.0622849 0.0623099 0.0623352 0.065993
0.0696606 0.0733382 0.077026 0.0807236 0.0813101 0.0818965 0.082483 0.0830695 0.083642 0.0868047
0.08997 0.0931379 0.0963084 0.0994809 0.107001 0.114523 0.12205 0.129582 0.137118 0.144661
0.152198 0.159734 0.167271 0.174807 0.18235 0.189885 0.19742 0.204955 0.212489 0.220031
0.227565 0.2351 0.242635 0.250169 0.257711 0.265246 0.272781 0.280316 0.287851 0.295394
0.302929 0.310465 0.318 0.325536 0.333079 0.340614 0.34815 0.355686 0.363222 0.370766
0.378302 0.385838 0.393375 0.400911 0.408455 0.415991 0.423528 0.431065 0.438602 0.446146
0.453683 0.46122 0.468757 0.476295 0.483839 0.491377 0.498914 0.506452 0.51399 0.521535
0.529072 0.53661 0.544148 0.551686 0 0.00126443 0.00252924 0.00379472 0.00506101 0.00632812
0.0101156 0.0139114 0.0177188 0.0215328 0.0253293 0.0269143 0.0284891 0.030057 0.0316178 0.0330096
0.0333339 0.033658 0.0339816 0.0343051 0.0346285 0.0364567 0.0382778 0.0400899 0.0418969 0.0436944
0.0454949 0.0473 0.0491172 0.0509393 0.0527656 0.0529171 0.0530687 0.0532202 0.0533718 0.0535308
0.0552092 0.0568904 0.0585742 0.060261 0.0619504 0.0656464 0.0693592 0.07309 0.0768315 0.080582
0.0843455 0.0881082 0.0918715 0.0956374 0.0994058 0.106941 0.114479 0.122021 0.129567 0.137117
0.144683 0.152235 0.159788 0.167341 0.174893 0.182453 0.190005 0.197556 0.205107 0.212658
0.220216 0.227767 0.235318 0.242869 0.25042 0.257978 0.265529 0.27308 0.280631 0.288183
0.295741 0.303293 0.310844 0.318396 0.325948 0.333507 0.341059 0.34861 0.356162 0.363715
0.371274 0.378826 0.386378 0.393931 0.401483 0.409043 0.416595 0.424148 0.431701 0.439253
0.446814 0.454366 0.461919 0.469472 0.477025 0.484586 0.492139 0.499692 0.507245 0.514799
0.52236 0.529913 0.537466 0.54502 0.552573 0 0.00126543 0.00253138 0.00379783 0.00506481
0.00633232 0.00822667 0.0101234 0.0120226 0.0139246 0.0158288 0.0177462 0.0196685 0.0215917 0.0235182
0.0254569 0.026428 0.0273965 0.0283605 0.02932 0.0302794 0.0307561 0.0312312 0.0317042 0.0321751
0.0326892 0.0331436 0.0335959 0.0340463 0.0344946 0.0349405 0.0358508 0.0367579 0.037661 0.0385598
0.0394496 0.0403388 0.0412265 0.0421135 0.0430002 0.0438874 0.0452322 0.0465838 0.0479422 0.0492984
0.0528823 0.0547113 0.0565539 0.058408 0.0602687 0.0621302 0.0640016 0.0658742 0.0677488 0.0696261
0.0715074 0.0733962 0.0752793 0.0771587 0.0790399 0.0809262 0.084014 0.0871058 0.0901991 0.0932938
0.095928 0.0967262 0.0975244 0.0983229 0.0991215 0.0999202 0.107513 0.115108 0.122707 0.130309
0.137916 0.145547 0.153154 0.160756 0.168358 0.175959 0.183579 0.191178 0.198776 0.206373
0.21397 0.221586 0.229183 0.236778 0.244374 0.25197 0.259584 0.26718 0.274775 0.282371
0.289967 0.297579 0.305175 0.312769 0.320364 0.32796 0.335571 0.343166 0.350761 0.358355
0.36595 0.37356 0.381155 0.388749 0.396343 0.403938 0.411546 0.419141 0.426735 0.434329
0.441923 0.44953 0.457124 0.464718 0.472311 0.479905 0.487512 0.495105 0.502698 0.510291
0.517885 0.52549 0.533083 0.540676 0.548269 0.555862 0 0.00126277 0.00252622 0.0037907
0.00505635 0.00632318 0.00823318 0.0101452 0.0120609 0.01398 0.0159044 0.0178216 0.0197518 0.0216948
0.0236506 0.0256287 0.0266287 0.0276294 0.0286306 0.0296311 0.0306434 0.0308907 0.031138 0.031385
0.03163 0.0318196 0.0325704 0.0333087 0.0340339 0.0347456 0.0354494 0.0358966 0.0363421 0.036786
0.0372285 0.037665 0.0381025 0.0385371 0.0389693 0.0394007 0.0398297 0.0402616 0.0406935 0.0411256
0.0415582 0.0419935 0.042429 0.0428639 0.0432991 0.0437353 0.0441737 0.0450507 0.0459372 0.0468339
0.0477423 0.048668 0.0494227 0.0501761 0.0509319 0.0516912 0.0526323 0.0527781 0.052924 0.05307
0.053216 0.0533622 0.0543168 0.0552702 0.0562257 0.0571835 0.0581435 0.0591125 0.0600806 0.0610497
0.0620219 0.0629958 0.0649653 0.0669295 0.0688881 0.0708511 0.0727974 0.0747289 0.0766759 0.0786386
0.080605 0.0825753 0.0865343 0.0904849 0.0944094 0.0983195 0.102232 0.110056 0.117846 0.125567
0.133231 0.140899 0.148596 0.156271 0.163942 0.171608 0.179272 0.186952 0.194615 0.202276
0.209935 0.217594 0.225267 0.232924 0.240581 0.248236 0.255892 0.26356 0.271215 0.278869
0.286522 0.294175 0.30184 0.309493 0.317145 0.324796 0.332447 0.340108 0.347759 0.355409
0.363058 0.370706 0.378365 0.386013 0.393661 0.401308 0.408955 0.41661 0.424257 0.431903
0.439548 0.447193 0.454845 0.46249 0.470134 0.477777 0.485421 0.493071 0.500713 0.508355
0.515997 0.523638 0.531284 0.538925 0.546566 0.554206 0.561846 0 0.0012644 0.00252944
0.00379514 0.00506148 0.00632907 0.00824608 0.0101655 0.0120882 0.0140172 0.0159584 0.0169285 0.0179014
0.0188775 0.0198568 0.0208392 0.0218268 0.0228226 0.0238273 0.024841 0.0258651 0.0263827 0.0269021
0.0274251 0.0279518 0.0284848 0.0287748 0.0290662 0.02936 0.0296564 0.0297544 0.0300547 0.0303564
0.0306589 0.0309613 0.0312719 0.0313712 0.0314705 0.03157 0.0316697 0.0317419 0.0317744 0.031807
0.0318395 0.031872 0.0319031 0.0320667 0.0322301 0.0323934 0.0325565 0.032721 0.0328996 0.0330777
0.0332554 0.0334302 0.0335592 0.0336651 0.0337705 0.0338752 0.033979 0.0340843 0.0341965 0.0343071
0.0344162 0.0345243 0.0346123 0.0346649 0.0347172 0.0347692 0.0348209 0.0348715 0.0349695 0.0350672
0.0351644 0.0352611 0.0353558 0.0354771 0.035597 0.0357155 0.0358329 0.0360233 0.036125 0.0362264
0.0363274 0.0364283 0.0365189 0.0366069 0.0366951 0.0367832 0.0368713 0.0370325 0.0371528 0.0372729
0.0373929 0.0375126 0.0376309 0.0378498 0.0380671 0.0382845 0.0385026 0.038717 0.0389352 0.0391527
0.0393705 0.0395888 0.0398068 0.0400277 0.0402469 0.0404664 0.0406862 0.0409066 0.0411268 0.0413466
0.0415666 0.0417872 0.0420104 0.0422348 0.0424574 0.0426801 0.0429033 0.0431276 0.0434723 0.0438187
0.044171 0.0445291 0.0446933 0.0448453 0.0449975 0.0451501 0.0453031 0.045457 0.0459435 0.046423
0.0469027 0.0473781 0.0478738 0.0483902 0.0488961 0.0494026 0.0499139 0.0504323 0.0505169 0.0506015
0.0506864 0.0507715 0.0508545 0.0518497 0.0528874 0.0539698 0.0550112 0.0560639 0.0572662 0.0584456
0.0596261 0.0608126 0.0619992 0.0624511 0.0629018 0.0633522 0.0638029 0.0643197 0.0650691 0.0658115
0.0665506 0.0672915 0.0680314 0.0681867 0.0683416 0.068496 0.0686498 0.0688024 0.069833 0.0708619
0.0718891 0.0729143 0.073935 0.0750874 0.0762605 0.0774373 0.0786157 0.0797966 0.0814029 0.0830105
0.0846259 0.0862419 0.0884014 0.0889795 0.0895557 0.09013 0.0907023 0.0912725 0.0957767 0.100256
0.104662 0.108978 0.113162 0.121328 0.129432 0.137463 0.145423 0.153306 0.161065 0.168825
0.176582 0.184336 0.192087 0.199835 0.207583 0.215329 0.223072 0.230814 0.238553 0.246292
0.254029 0.261765 0.269499 0.270261 0.271023 0.271785 0.272547 0.273309 0.280279 0.28725
0.29422 0.30119 0.30816 0.315886 0.323617 0.331349 0.339081 0.346813 0.354531 0.362263
0.369994 0.377725 0.385457 0.393169 0.400899 0.40863 0.416361 0.424091 0.431797 0.439527
0.447257 0.454987 0.462717 0.470417 0.478146 0.485874 0.493603 0.501332 0.509027 0.516755
0.524482 0.532209 0.539936 0.547626 0.555351 0.563076 0.570802 0.578528 0 0.0012541
0.00250913 0.00376549 0.00502328 0.00628264 0.00821392 0.0101479 0.0120846 0.0140285 0.0159866 0.0169592
0.0179358 0.0189164 0.019901 0.0208898 0.0218842 0.0228894 0.0239063 0.024935 0.0259766 0.0265052
0.027037 0.0275756 0.0281209 0.0286752 0.0292407 0.029814 0.0304002 0.0310004 0.0316273 0.0319462
0.0322651 0.0325847 0.0329053 0.0332404 0.0333106 0.0333808 0.0334509 0.0335212 0.0335786 0.0336574
0.0337347 0.033811 0.0338866 0.0339499 0.0341203 0.0342874 0.0344513 0.0346118 0.0347776 0.034921
0.0350616 0.0351996 0.0353343 0.0354541 0.0355737 0.0356928 0.0358113 0.0359282 0.0360394 0.0361573
0.036272 0.0363837 0.0364949 0.0366418 0.0367483 0.0368546 0.0369607 0.0370666 0.0371639 0.0373585
0.0375533 0.0377513 0.0379524 0.0383596 0.0385988 0.038839 0.0390769 0.0393127 0.0395434 0.0400074
0.040465 0.0409189 0.0413694 0.0418148 0.0422721 0.0427141 0.0431595 0.0436079 0.0440594 0.0445331
0.0450008 0.0454793 0.0459626 0.0464541 0.0473065 0.0481792 0.0490658 0.0499564 0.0517955 0.0529198
0.0540457 0.0551951 0.0563647 0.0575677 0.0588281 0.0600611 0.061276 0.0624999 0.0637309 0.064659
0.0655728 0.0664852 0.0673918 0.0686395 0.0688986 0.0691577 0.0694171 0.069677 0.0699372 0.0706812
0.0714272 0.072172 0.0729181 0.0738325 0.0742971 0.0747615 0.0752258 0.0756889 0.07615 0.0773919
0.0786383 0.0798924 0.0811481 0.082403 0.0848942 0.0873893 0.0898545 0.092276 0.0946716 0.099504
0.104289 0.108932 0.113437 0.117789 0.1219 0.125995 0.130072 0.134131 0.139523 0.143437
0.147311 0.151145 0.154939 0.158695 0.166454 0.174219 0.181984 0.189746 0.197508 0.205252
0.213012 0.220772 0.228531 0.236289 0.244022 0.251779 0.259536 0.267293 0.27505 0.282774
0.29053 0.298286 0.306042 0.313798 0.321515 0.32927 0.337025 0.344779 0.352534 0.360245
0.367998 0.375752 0.383506 0.39126 0.398964 0.406716 0.414468 0.422221 0.429973 0.437672
0.445423 0.453174 0.460924 0.468675 0.476369 0.484118 0.491867 0.499616 0.507365 0.515054
0.522801 0.530548 0.538296 0.546043 0.553726 0.56147 0.569214 0.576958 0.584703 0
0.00125902 0.00251871 0.00377908 0.00504087 0.00630431 0.00823297 0.0101646 0.0120991 0.014041 0.015997
0.0169699 0.0179469 0.0189279 0.0199131 0.0209027 0.0218971 0.0229022 0.0239189 0.0249474 0.0259889
0.0265179 0.0270498 0.0275874 0.0281317 0.0286854 0.0292484 0.029819 0.0303992 0.030992 0.0316143
0.0319305 0.0322474 0.0325646 0.0328819 0.0332117 0.033451 0.033689 0.0339249 0.0341548 0.0342514
0.0343541 0.0344557 0.0345563 0.0346558 0.0347579 0.03496 0.0351552 0.0353437 0.0355263 0.0356814
0.0357596 0.0358375 0.0359146 0.0359909 0.0360656 0.0360685 0.0360715 0.0360744 0.0360774 0.0360804
0.0362239 0.036366 0.0365068 0.0366463 0.0368503 0.0369253 0.0370003 0.0370752 0.0371499 0.0372209
0.0376786 0.0381415 0.038618 0.0391026 0.039517 0.0399788 0.0404298 0.0408794 0.0413313 0.0417915
0.0422679 0.0427345 0.0431977 0.0436633 0.0441382 0.0446308 0.045114 0.0455919 0.0460752 0.0465724
0.0476082 0.0486662 0.0497368 0.0508268 0.0515523 0.0516325 0.0517126 0.0517926 0.0518725 0.0519524
0.0530837 0.0542393 0.055423 0.0566298 0.0578569 0.0591331 0.0603859 0.0616189 0.0628681 0.0641108
0.0647357 0.06535 0.0659617 0.0665718 0.0671849 0.0678123 0.0684297 0.0690378 0.0696481 0.0702639
0.0715173 0.0727799 0.0740398 0.0752947 0.0765392 0.0773242 0.0781025 0.0788817 0.0796622 0.0805329
0.0808667 0.0812007 0.0815348 0.0818695 0.0821983 0.0823227 0.0824471 0.0825714 0.0826956 0.0828196
0.0853357 0.087836 0.0903208 0.0927474 0.0951431 0.0999073 0.104623 0.109226 0.113712 0.118053
0.125389 0.132622 0.139724 0.146696 0.159262 0.164717 0.17017 0.175622 0.181073 0.186665
0.188931 0.191197 0.193462 0.195728 0.197994 0.205732 0.213472 0.221212 0.228952 0.236691
0.244418 0.252156 0.259894 0.267631 0.275369 0.283088 0.290825 0.298562 0.306299 0.314036
0.321748 0.329484 0.33722 0.344957 0.352693 0.360399 0.368134 0.375869 0.383605 0.39134
0.39904 0.406775 0.414509 0.422243 0.429978 0.437672 0.445405 0.453139 0.460872 0.468605
0.476294 0.484026 0.491758 0.49949 0.507222 0.514906 0.522636 0.530367 0.538097 0.545827
0.553506 0.561234 0.568961 0.576689 0.584418 0 0.00127991 0.00256045 0.00384225 0.00512553
0.0064103 0.00831671 0.0102256 0.0121373 0.0140555 0.0159857 0.0169577 0.0179328 0.0189112 0.0198931
0.0208785 0.0218726 0.0228758 0.0238889 0.0249118 0.025947 0.0263913 0.0268372 0.0272865 0.0277393
0.0278623 0.02801 0.0281579 0.0283059 0.028454 0.0286024 0.0291458 0.0296935 0.0302484 0.0308122
0.0313969 0.0314736 0.0315503 0.031627 0.0317037 0.0317701 0.0319859 0.0322015 0.0324171 0.0326324
0.0328513 0.0329317 0.0330121 0.0330924 0.0331725 0.0332418 0.0334523 0.0336619 0.0338706 0.0340759
0.0342876 0.0343508 0.0344136 0.0344759 0.0345378 0.0345914 0.0345962 0.0346011 0.034606 0.0346108
0.0346156 0.0348307 0.0350412 0.0352473 0.035446 0.0356362 0.0356581 0.0356799 0.0357017 0.0357234
0.0357456 0.0358477 0.0359488 0.0360489 0.0361503 0.0362952 0.0363885 0.0364812 0.0365733 0.0366644
0.0367532 0.0368571 0.0369603 0.037063 0.0371658 0.037314 0.0374131 0.037512 0.0376109 0.0377106
0.037808 0.0380198 0.0382299 0.0384393 0.038648 0.0388601 0.0390801 0.0392955 0.0395066 0.0397178
0.0399316 0.0401477 0.0403621 0.0405756 0.0407896 0.0410061 0.0412271 0.0414446 0.0416608 0.0418774
0.0420949 0.0423137 0.042531 0.0427482 0.0429658 0.0431846 0.0436297 0.0440751 0.0445237 0.0449757
0.0454358 0.0459145 0.0463812 0.0468401 0.047302 0.0477775 0.0482604 0.0487413 0.049222 0.0497065
0.050199 0.0512167 0.0522398 0.0532736 0.0543605 0.0554658 0.0558459 0.0562263 0.0566079 0.0569913
0.0573974 0.0581732 0.0589484 0.0597231 0.0605019 0.0612884 0.0624895 0.0636641 0.0648445 0.0660406
0.0672346 0.0684637 0.069668 0.0708482 0.0720227 0.0731893 0.0737058 0.0742213 0.0747373 0.0752539
0.0757597 0.0760939 0.0764283 0.0767628 0.0770975 0.0774419 0.0777648 0.078088 0.0784113 0.0787349
0.0790581 0.0814054 0.0837546 0.0861041 0.0884227 0.0907113 0.0952168 0.0997744 0.104244 0.108567
0.112781 0.121083 0.129354 0.137567 0.145608 0.153481 0.161221 0.168961 0.176698 0.184431
0.192161 0.199887 0.207613 0.215338 0.223061 0.230782 0.2385 0.246217 0.253934 0.26165
0.269364 0.270894 0.272425 0.273956 0.275486 0.277017 0.283198 0.289379 0.29556 0.301741
0.307923 0.315629 0.32334 0.331052 0.338763 0.346475 0.354175 0.361886 0.369597 0.377308
0.385019 0.392713 0.400424 0.408134 0.415845 0.423555 0.431244 0.438954 0.446664 0.454374
0.462084 0.469768 0.477476 0.485185 0.492894 0.500603 0.508283 0.51599 0.523698 0.531406
0.539113 0.546788 0.554493 0.562199 0.569906 0.577612 0 0.00127752 0.00255574 0.00383508
0.00511571 0.00639761 0.00829916 0.0102026 0.012109 0.0140202 0.0159394 0.0169036 0.0178696 0.0188376
0.0198078 0.0207802 0.021754 0.0227327 0.0237168 0.0247054 0.0256978 0.0266885 0.0276856 0.028691
0.0296917 0.0307003 0.0307761 0.0308519 0.0309277 0.0310033 0.0310731 0.0319949 0.0328972 0.0337791
0.0346398 0.035498 0.035946 0.0363917 0.0368354 0.037278 0.0377151 0.0381537 0.0385899 0.0390252
0.0394598 0.0398886 0.0403217 0.040755 0.0411885 0.0416224 0.0420569 0.0424932 0.0429283 0.0433643
0.0438013 0.0442401 0.0451183 0.0460051 0.0468985 0.0477994 0.0487253 0.0496729 0.0506127 0.0515459
0.0524858 0.0534353 0.0541827 0.0549356 0.0556909 0.0564479 0.0576219 0.0577559 0.05789 0.0580241
0.0581583 0.0582926 0.0592769 0.0602609 0.0612452 0.0622291 0.0632118 0.0652127 0.0672003 0.0691769
0.0711631 0.0731477 0.0751067 0.0770925 0.0790927 0.0810969 0.0831026 0.0871146 0.091145 0.0951437
0.0990964 0.103043 0.106038 0.109038 0.112046 0.115046 0.118601 0.123414 0.1282 0.132961
0.137697 0.142407 0.150116 0.157829 0.165538 0.173245 0.18095 0.188643 0.196343 0.204042
0.21174 0.219436 0.227122 0.234815 0.242507 0.250198 0.257888 0.265569 0.273257 0.280943
0.288629 0.296314 0.303992 0.311675 0.319357 0.327038 0.334718 0.342393 0.350071 0.357748
0.365425 0.373101 0.380773 0.388447 0.39612 0.403793 0.411465 0.419134 0.426804 0.434474
0.442143 0.449812 0.457477 0.465144 0.47281 0.480476 0.488141 0.495804 0.503468 0.51113
0.518793 0.526454 0.534114 0.541773 0.549433 0.557092 0.564751 0 0.00127408 0.00254878
0.00382393 0.0051003 0.00637791 0.00827379 0.0101718 0.0120721 0.0139754 0.0158829 0.0177921 0.0197067
0.0216261 0.0235502 0.0254823 0.0264532 0.027421 0.028384 0.0293419 0.0299641 0.0309816 0.0319914
0.0329907 0.0339798 0.0349573 0.0358663 0.036772 0.0376735 0.0385721 0.0394617 0.0403524 0.0412415
0.0421296 0.0430167 0.0439031 0.0456803 0.0474749 0.049284 0.0511028 0.052938 0.0538197 0.0547027
0.0555878 0.0564751 0.0578665 0.0587334 0.059602 0.0604723 0.0613444 0.0622178 0.0640935 0.0659721
0.0678534 0.0697373 0.0716233 0.0735187 0.0754065 0.0772952 0.0791854 0.0810766 0.0848728 0.0886682
0.0924681 0.0962724 0.10009 0.107788 0.115489 0.123144 0.130763 0.138397 0.146045 0.153691
0.161335 0.168977 0.176618 0.184264 0.191906 0.199546 0.207185 0.214822 0.222463 0.230101
0.237737 0.245373 0.253007 0.260645 0.26828 0.275914 0.283547 0.291179 0.298814 0.306447
0.314079 0.32171 0.32934 0.336973 0.344603 0.352233 0.359861 0.367489 0.37512 0.382748
0.390376 0.398003 0.405629 0.413257 0.420884 0.428509 0.436134 0.443758 0.451385 0.459009
0.466633 0.474256 0.481878 0.489502 0.497125 0.504747 0.512368 0.519988 0.52761 0.53523
0.54285 0.550469 0.558088 0 0.00127141 0.00254319 0.00381551 0.00508842 0.00636194 0.0101413
0.0139322 0.0177223 0.0215091 0.0252997 0.0257914 0.0262819 0.0267715 0.0272603 0.02769 0.0290788
0.0304624 0.0318409 0.0332143 0.0345851 0.0364262 0.0382579 0.0400727 0.0418834 0.0436891 0.0455003
0.047309 0.0491191 0.0509378 0.0527679 0.0546041 0.0564419 0.0582824 0.0601258 0.0619718 0.0656741
0.0693903 0.0731223 0.0768693 0.08062 0.0843905 0.0881591 0.0919279 0.0956988 0.099472 0.107002
0.11453 0.122064 0.129612 0.137175 0.144753 0.152328 0.159905 0.167482 0.175058 0.182639