# vtk DataFile Version 2.0
tracks
ASCII
DATASET POLYDATA
POINTS 2610 float
-1.001 -0.05 0.0011 -0.900789 -0.0500215 0.00109733 -0.800577 -0.050043 0.00109468 -0.700366 -0.0500644
0.00109202 -0.600155 -0.0500858 0.00108938 -0.499943 -0.0501072 0.00108674 -0.424945 -0.0501112 0.00107919
-0.349947 -0.0501518 0.00106934 -0.274949 -0.050192 0.00105959 -0.19995 -0.0502319 0.00104992 -0.124952
-0.0502714 0.00104035 -0.0499538 -0.0502812 0.0010407 0.0250446 -0.0502905 0.00104944 0.100043 -0.0502998
0.00105825 0.175041 -0.0503092 0.00106714 0.25004 -0.0503187 0.00107611 0.400037 -0.0503126 0.00109222
0.550035 -0.0503098 0.00110652 0.700032 -0.050307 0.00112101 0.85003 -0.0503041 0.00113569 1.00003
-0.0503012 0.00115056 1.15003 -0.0503121 0.00115797 1.30002 -0.0503166 0.00116243 1.45002 -0.0503211
0.00116691 1.60002 -0.0503257 0.00117141 1.75002 -0.0503303 0.00117592 1.90002 -0.0503389 0.00117898
2.05002 -0.0503443 0.00118087 2.20001 -0.0503496 0.00118276 2.35001 -0.0503549 0.00118466 2.50001
-0.0503603 0.00118655 2.65001 -0.0503684 0.00118779 2.80001 -0.0503753 0.00118839 2.95001 -0.0503822
0.001189 3.10001 -0.0503891 0.0011896 3.25001 -0.050396 0.00119021 3.40001 -0.0504039 0.00119068
3.55001 -0.0504116 0.00119117 3.70001 -0.0504192 0.00119166 3.85001 -0.0504268 0.00119214 4.00001
-0.0504344 0.00119263 4.15 -0.0504423 0.0011929 4.3 -0.0504506 0.00119347 4.45 -0.050459
0.00119404 4.6 -0.0504674 0.0011946 4.75 -0.0504757 0.00119517 4.9 -0.0504834 0.00119535
5.05 -0.0504923 0.00119606 5.2 -0.0505011 0.00119677 5.35 -0.0505099 0.00119749 5.5
-0.0505187 0.0011982 5.65 -0.0505264 0.00119832 5.8 -0.0505354 0.00119919 5.95 -0.0505445
0.00120006 6.1 -0.0505536 0.00120094 6.25 -0.0505627 0.00120181 6.4 -0.0505703 0.00120188
6.55 -0.0505796 0.00120292 6.7 -0.0505888 0.00120397 6.85 -0.0505981 0.00120501 7
-0.0506074 0.00120605 7.15 -0.0506149 0.00120609 7.3 -0.0506243 0.00120726 7.45 -0.0506337
0.00120843 7.6 -0.0506432 0.0012096 7.75 -0.0506526 0.00121077 7.9 -0.05066 0.00121078
8.05 -0.0506695 0.00121206 8.2 -0.0506791 0.00121334 8.35 -0.0506886 0.00121463 8.5
-0.0506982 0.00121591 8.65 -0.0507055 0.00121591 8.8 -0.0507151 0.00121729 8.95 -0.0507247
0.00121867 9.1 -0.0507343 0.00122006 9.25 -0.0507439 0.00122144 9.4 -0.0507512 0.00122142
9.55 -0.050807 0.00122351 9.7 -0.0509143 0.00122631 9.85 -0.0510729 0.0012298 10
-0.0512829 0.00123401 -1.001 -0.05 0.0537316 -0.900807 -0.0501078 0.0535768 -0.800614 -0.050216
0.0533949 -0.700421 -0.050348 0.0531803 -0.600229 -0.0505115 0.0529315 -0.500035 -0.0507062 0.0526485
-0.425004 -0.0509536 0.0524323 -0.349973 -0.05129 0.0521519 -0.274943 -0.0516744 0.0518932 -0.199912
-0.0520935 0.0516767 -0.124879 -0.0524987 0.0515415 -0.0498862 -0.0527712 0.0515836 0.0251066 -0.0529982
0.0517519 0.100099 -0.0532206 0.051988 0.175092 -0.0534526 0.0522719 0.250087 -0.0536799 0.0525902
0.400077 -0.0540795 0.0532266 0.550067 -0.0544717 0.0537457 0.700057 -0.0548201 0.0542172 0.850048
-0.0551247 0.0546406 1.00003 -0.0553936 0.0550154 1.14971 -0.0557723 0.0553066 1.29939 -0.0561161
0.0555785 1.44907 -0.0564572 0.0558156 1.59875 -0.0567956 0.0560177 1.71784 -0.0570629 0.0561507
1.72428 -0.057078 0.0561569 1.73071 -0.0570932 0.0561632 1.73715 -0.0571084 0.0561693 1.74358
-0.0571237 0.0561755 1.75002 -0.057139 0.0561816 1.90002 -0.0574972 0.0563231 2.05002 -0.0578505
0.0564471 2.20001 -0.0581997 0.0565535 2.35001 -0.0585448 0.0566423 2.50001 -0.0588855 0.0567133
2.65001 -0.0592338 0.0567737 2.80001 -0.0595788 0.0568267 2.95001 -0.0599228 0.056872 3.10001
-0.0602658 0.0569097 3.25001 -0.0606077 0.0569397 3.40001 -0.0609538 0.0569654 3.55001 -0.0612978
0.0569895 3.70001 -0.0616403 0.0570115 3.85001 -0.0619813 0.0570315 4.00001 -0.0623207 0.0570494
4.15 -0.0626613 0.0570656 4.3 -0.0630021 0.0570819 4.45 -0.0633414 0.0570972 4.6
-0.0636792 0.0571117 4.75 -0.0640154 0.0571253 4.9 -0.0643505 0.0571374 5.05 -0.0646872
0.0571504 5.2 -0.0650224 0.0571627 5.35 -0.0653561 0.0571745 5.5 -0.0656885 0.0571857
5.65 -0.0660179 0.0571951 5.8 -0.0663498 0.057206 5.95 -0.0666803 0.0572165 6.1
-0.0670096 0.0572266 6.25 -0.0673376 0.0572363 6.4 -0.0676617 0.0572438 6.55 -0.0679888
0.0572534 6.7 -0.0683147 0.0572626 6.85 -0.0686394 0.0572716 7 -0.068963 0.0572802
7.15 -0.069282 0.0572864 7.3 -0.0696044 0.057295 7.45 -0.0699257 0.0573034 7.6
-0.0702458 0.0573115 7.75 -0.0705649 0.0573193 7.9 -0.0708788 0.0573245 8.05 -0.0711965
0.0573324 8.2 -0.0715132 0.0573402 8.35 -0.0718287 0.0573479 8.5 -0.0721431 0.0573555
8.65 -0.0724522 0.0573603 8.8 -0.0727652 0.0573679 8.95 -0.0730771 0.0573754 9.1
-0.0733877 0.0573827 9.25 -0.0736973 0.0573899 9.4 -0.0740011 0.057394 9.55 -0.0743095
0.0574012 9.7 -0.0746174 0.0574083 9.85 -0.0749247 0.0574153 10 -0.0752314 0.0574222
-1.001 -0.05 0.106363 -0.900818 -0.0500801 0.106139 -0.800636 -0.0501582 0.105867 -0.700455
-0.0502633 0.105549 -0.600274 -0.050439 0.105012 -0.50009 -0.0506851 0.104257 -0.424995 -0.0509717
0.103681 -0.349901 -0.0513201 0.103087 -0.274806 -0.0516749 0.102566 -0.199711 -0.0519759 0.102151
-0.124606 -0.0523223 0.102061 -0.0496036 -0.0525782 0.102184 0.0253984 -0.0527797 0.10242 0.1004
-0.0529682 0.102736 0.175401 -0.0531768 0.103135 0.250411 -0.0534051 0.103616 0.400347 -0.0538262
0.104613 0.550283 -0.0542403 0.105486 0.70022 -0.0546128 0.106273 0.850157 -0.0549524 0.106895
1.00009 -0.0552587 0.107353 1.15007 -0.055706 0.107626 1.30006 -0.0559998 0.107931 1.45005
-0.056242 0.108217 1.60003 -0.0564778 0.108469 1.75002 -0.0567073 0.10869 1.90002 -0.0570193
0.108844 2.05002 -0.0572584 0.109008 2.20001 -0.0574911 0.109156 2.35001 -0.0577213 0.109287
2.50001 -0.0579489 0.109401 2.65001 -0.0582413 0.10948 2.80001 -0.058483 0.109558 2.95001
-0.0587231 0.109628 3.10001 -0.0589624 0.109691 3.25001 -0.0592008 0.109746 3.40001 -0.0594906
0.109792 3.55001 -0.0597351 0.109836 3.70001 -0.0599775 0.109878 3.85001 -0.0602182 0.109918
4 -0.0604573 0.109956 4.15 -0.0607405 0.109994 4.3 -0.0609845 0.110026 4.45
-0.0612265 0.110058 4.6 -0.0614669 0.110088 4.75 -0.0617057 0.110118 4.9 -0.0619821
0.110152 5.05 -0.0622238 0.110178 5.2 -0.0624637 0.110204 5.35 -0.062702 0.110229
5.5 -0.0629389 0.110253 5.65 -0.0632084 0.110285 5.8 -0.0634471 0.110306 5.95
-0.0636841 0.110327 6.1 -0.0639198 0.110347 6.25 -0.0641541 0.110367 6.4 -0.0644172
0.110397 6.55 -0.0646526 0.110415 6.7 -0.0648865 0.110432 6.85 -0.0651192 0.110449
7 -0.0653507 0.110465 7.15 -0.0656077 0.110493 7.3 -0.0658398 0.110508 7.45
-0.0660705 0.110522 7.6 -0.0663001 0.110536 7.75 -0.0665284 0.11055 7.9 -0.0667796
0.110577 8.05 -0.0670083 0.110589 8.2 -0.0672357 0.1106 8.35 -0.067462 0.110612
8.5 -0.0676871 0.110624 8.65 -0.0679327 0.11065 8.8 -0.0681578 0.110661 8.95
-0.0683814 0.110671 9.1 -0.068604 0.110681 9.25 -0.0688253 0.110691 9.4 -0.0690649
0.110716 9.55 -0.0692864 0.110724 9.7 -0.0695071 0.110733 9.85 -0.0697273 0.110741
10 -0.0699469 0.110749 -1.001 -0.05 0.158995 -0.900796 -0.0500904 0.15877 -0.800593
-0.0501972 0.158425 -0.700392 -0.0503624 0.157691 -0.600196 -0.0505988 0.156484 -0.499992 -0.0508983
0.154653 -0.424721 -0.0515072 0.153062 -0.349437 -0.0519744 0.152157 -0.27415 -0.0523726 0.151616
-0.198861 -0.0527708 0.151346 -0.123701 -0.0530945 0.151421 -0.0487811 -0.0532298 0.151602 0.0261376
-0.0533168 0.15209 0.101055 -0.0534612 0.152794 0.17597 -0.0536325 0.153588 0.250946 -0.0537897
0.154411 0.400785 -0.0540064 0.155828 0.550626 -0.0545224 0.157008 0.700469 -0.0550018 0.157766
0.850313 -0.0554065 0.15837 1.00014 -0.0557778 0.158809 1.15012 -0.056291 0.159063 1.30009
-0.0566501 0.159349 1.45007 -0.0569156 0.159627 1.60005 -0.0571034 0.159893 1.75002 -0.0572849
0.160125 1.90002 -0.0575502 0.160292 2.05002 -0.0577419 0.160468 2.20002 -0.0579202 0.16063
2.35001 -0.0580888 0.160778 2.50001 -0.0582549 0.160908 2.65001 -0.0584865 0.161004 2.80001
-0.058667 0.161098 2.95001 -0.0588448 0.161185 3.10001 -0.0590205 0.161266 3.25001 -0.0591955
0.16134 3.40001 -0.0594219 0.161403 3.55001 -0.0596032 0.161465 3.70001 -0.0597813 0.161527
3.85001 -0.059957 0.161587 4 -0.0601311 0.161645 4.15 -0.0603492 0.161702 4.3
-0.0605283 0.161754 4.45 -0.0607046 0.161806 4.6 -0.0608785 0.161858 4.75 -0.061051
0.161909 4.9 -0.0612606 0.161964 5.05 -0.061436 0.162011 5.2 -0.0616088 0.162058
5.35 -0.0617796 0.162104 5.5 -0.061949 0.16215 5.65 -0.0621505 0.162203 5.8
-0.0623216 0.162246 5.95 -0.0624906 0.162288 6.1 -0.0626578 0.16233 6.25 -0.0628236
0.162371 6.4 -0.0630176 0.162423 6.55 -0.0631845 0.162462 6.7 -0.0633494 0.162501
6.85 -0.0635126 0.162539 7 -0.0636747 0.162577 7.15 -0.0638617 0.162627 7.3
-0.0640244 0.162663 7.45 -0.0641853 0.162699 7.6 -0.0643447 0.162734 7.75 -0.0645029
0.162769 7.9 -0.0646832 0.162817 8.05 -0.0648418 0.162851 8.2 -0.0649987 0.162884
8.35 -0.0651542 0.162917 8.5 -0.0653085 0.16295 8.65 -0.0654826 0.162997 8.8
-0.0656369 0.163029 8.95 -0.0657894 0.163061 9.1 -0.0659404 0.163092 9.25 -0.0660903
0.163122 9.4 -0.0662577 0.163168 9.55 -0.0664077 0.163198 9.7 -0.0665567 0.163227
9.85 -0.0667048 0.163255 10 -0.0668525 0.163284 -1.001 -0.05 0.211626 -0.947625
-0.0500816 0.211469 -0.894251 -0.0501678 0.211278 -0.840876 -0.0502588 0.211054 -0.787502 -0.0503941
0.210764 -0.724331 -0.0506382 0.210287 -0.679451 -0.0509164 0.20964 -0.634574 -0.0512522 0.208766
-0.589701 -0.0515922 0.207756 -0.544831 -0.0519373 0.20661 -0.499928 -0.052289 0.205324 -0.469083
-0.0525878 0.204265 -0.438239 -0.0528966 0.203144 -0.407391 -0.053189 0.202153 -0.376539 -0.0534664
0.201287 -0.326759 -0.053899 0.200029 -0.286369 -0.0542349 0.199157 -0.245974 -0.0545721 0.198511
-0.205575 -0.0549144 0.198167 -0.165175 -0.0552197 0.198101 -0.124889 -0.0554521 0.19829 -0.0496159
-0.0557627 0.199035 0.0256554 -0.0559056 0.200005 0.100922 -0.056021 0.201294 0.176187 -0.056168
0.202656 0.238204 -0.0562813 0.203607 0.240859 -0.0562855 0.203643 0.243515 -0.0562897 0.203678
0.246171 -0.0562938 0.203714 0.248826 -0.0562979 0.203749 0.251482 -0.0563021 0.203784 0.32624
-0.0564164 0.204763 0.400999 -0.0565318 0.205616 0.475759 -0.0566479 0.206341 0.550521 -0.0567922
[...]
POINT_DATA 2610
FIELD attributes 4
age 1 2610 float
0 0.00501118 0.0100224 0.0150335 0.0200447 0.0250559 0.0288055 0.0325531 0.0363008 0.0400485 0.0437962
0.0475446 0.0512902 0.0550358 0.0587814 0.0625269 0.0700236 0.0775226 0.0850216 0.0925205 0.100019
0.107519 0.115019 0.122519 0.130019 0.137519 0.145019 0.152519 0.160018 0.167518 0.175018
0.182518 0.190017 0.197517 0.205017 0.212516 0.220016 0.227516 0.235016 0.242515 0.250015
0.257515 0.265015 0.272514 0.280014 0.287514 0.295014 0.302513 0.310013 0.317513 0.325013
0.332513 0.340012 0.347512 0.355012 0.362511 0.370011 0.377511 0.385011 0.392511 0.40001
0.40751 0.41501 0.42251 0.430009 0.437509 0.445009 0.452509 0.460009 0.467508 0.475008
0.482508 0.490008 0.497508 0.505007 0.512507 0.520007 0.527506 0.535004 0.542502 0.549998
0 0.00502563 0.0100525 0.0150734 0.0200861 0.0250906 0.0288293 0.0325621 0.0362882 0.0400075
0.0437205 0.0474265 0.0511255 0.0548228 0.05852 0.062219 0.0696294 0.0770652 0.0845156 0.0919807
0.0994605 0.106938 0.114416 0.121896 0.129377 0.135331 0.135653 0.135975 0.136296 0.136618
0.13694 0.14444 0.151939 0.159438 0.166936 0.174434 0.181932 0.189429 0.196925 0.204422
0.211918 0.219415 0.226911 0.234408 0.241904 0.249401 0.256898 0.264395 0.271892 0.279389
0.286886 0.294384 0.301881 0.309379 0.316876 0.324374 0.331872 0.33937 0.346868 0.354366
0.361864 0.369362 0.376861 0.384359 0.391857 0.399356 0.406855 0.414354 0.421852 0.429351
0.43685 0.44435 0.451849 0.459348 0.466848 0.474347 0.481847 0.489347 0.496846 0.504346
0.511846 0.519347 0.526847 0.534347 0.541847 0.549348 0 0.00502762 0.010057 0.0150806
0.0200975 0.0251081 0.0288547 0.0325942 0.0363245 0.0400499 0.0437657 0.0474701 0.0511688 0.0548665
0.0585632 0.0622596 0.0696577 0.0770828 0.084526 0.0919909 0.0994773 0.106979 0.114482 0.121988
0.129496 0.137004 0.144518 0.152026 0.159533 0.16704 0.174546 0.182057 0.189562 0.197066
0.20457 0.212074 0.219585 0.227089 0.234593 0.242097 0.249601 0.257112 0.264616 0.272121
0.279625 0.28713 0.294641 0.302146 0.309651 0.317155 0.32466 0.332172 0.339677 0.347182
0.354687 0.362193 0.369705 0.37721 0.384716 0.392221 0.399727 0.40724 0.414745 0.422251
0.429757 0.437263 0.444776 0.452282 0.459789 0.467295 0.474801 0.482315 0.489821 0.497328
0.504835 0.512341 0.519856 0.527363 0.534869 0.542376 0.549883 0 0.00502973 0.0100654
0.0150982 0.020125 0.0251468 0.0289118 0.0326652 0.0364066 0.0401376 0.043852 0.0475465 0.0512358
0.0549243 0.0586121 0.0623034 0.0696905 0.0771137 0.0845669 0.092036 0.099526 0.107036 0.114547
0.122064 0.129584 0.137105 0.144632 0.152153 0.159675 0.167195 0.174716 0.182241 0.18976
0.197279 0.204798 0.212316 0.21984 0.227359 0.234877 0.242395 0.249914 0.257439 0.264957
0.272476 0.279995 0.287514 0.295039 0.302558 0.310078 0.317597 0.325116 0.332642 0.340161
0.347681 0.3552 0.36272 0.370247 0.377766 0.385286 0.392806 0.400326 0.407853 0.415373
0.422893 0.430414 0.437934 0.445462 0.452982 0.460503 0.468024 0.475544 0.483072 0.490593
0.498114 0.505635 0.513157 0.520685 0.528206 0.535728 0.543249 0.550771 0 0.00268285
0.00536737 0.00805356 0.0107391 0.0139153 0.0161704 0.018425 0.0206788 0.0229318 0.0251857 0.0267315
0.0282752 0.0298159 0.0313536 0.0338289 0.0358294 0.0378244 0.0398142 0.0417986 0.043772 0.0474504
0.0511304 0.0548119 0.0585001 0.061548 0.0616788 0.0618096 0.0619403 0.0620711 0.062202 0.0658846
0.0695772 0.0732798 0.0769926 0.0807153 0.0813353 0.0819552 0.0825752 0.0831953 0.0837989 0.0869281
0.0900597 0.0931937 0.0963301 0.0994683 0.106986 0.114505 0.12203 0.129559 0.137092 0.144632
0.152166 0.1597 0.167234 0.174768 0.182307 0.18984 0.197372 0.204905 0.212436 0.219975
0.227507 0.235039 0.242571 0.250103 0.257642 0.265174 0.272706 0.280239 0.287772 0.295311
0.302844 0.310377 0.317909 0.325442 0.332982 0.340515 0.348049 0.355582 0.363115 0.370656
0.378189 0.385723 0.393257 0.40079 0.408331 0.415865 0.423399 0.430933 0.438468 0.446009
0.453543 0.461078 0.468612 0.476147 0.483689 0.491223 0.498758 0.506293 0.513828 0.521371
0.528906 0.536441 0.543977 0.551512 0 0.00126435 0.00252908 0.00379448 0.00506067 0.00632768
0.0101148 0.0139102 0.0177171 0.0215302 0.0253256 0.0269188 0.0285016 0.0300776 0.0316461 0.0330828
0.0333911 0.0336991 0.0340068 0.0343143 0.0346217 0.0364489 0.038269 0.0400802 0.0418862 0.043683
0.0454825 0.0472873 0.0491041 0.0509261 0.0527523 0.0527614 0.0527705 0.0527797 0.0527888 0.052798
0.0546192 0.0564438 0.0582718 0.0601032 0.0619376 0.0656343 0.0693477 0.0730788 0.0768202 0.0805696
0.0843313 0.0880923 0.0918541 0.0956185 0.099385 0.106917 0.114451 0.121989 0.129531 0.137077
0.14464 0.152188 0.159737 0.167285 0.174834 0.182391 0.189939 0.197486 0.205034 0.212581
0.220136 0.227683 0.23523 0.242777 0.250324 0.257879 0.265426 0.272974 0.280521 0.288068
0.295624 0.303172 0.310719 0.318267 0.325815 0.333372 0.340919 0.348467 0.356015 0.363563
0.37112 0.378668 0.386217 0.393765 0.401313 0.408871 0.416419 0.423968 0.431517 0.439065
0.446623 0.454172 0.461721 0.46927 0.476819 0.484377 0.491926 0.499475 0.507025 0.514574
0.522133 0.529682 0.537231 0.544781 0.55233 0 0.00126534 0.00253119 0.00379755 0.00506442
0.00633182 0.008226 0.0101225 0.0120215 0.0139233 0.0158272 0.0177443 0.0196663 0.0215892 0.0235152
0.0254532 0.0264238 0.0273917 0.0283553 0.0293144 0.0302732 0.0307508 0.0312267 0.0317005 0.0321722
0.0326931 0.0331447 0.0335944 0.0340421 0.0344879 0.0349311 0.0358406 0.0367468 0.0376489 0.0385468
0.0394358 0.0403241 0.0412108 0.042097 0.0429829 0.0438696 0.0450482 0.0462318 0.0474208 0.0486151
0.0487698 0.0495873 0.0504066 0.0512277 0.0520507 0.0528747 0.0547034 0.056546 0.0583999 0.0602606
0.0621218 0.0639928 0.0658648 0.0677389 0.0696156 0.0714961 0.0733833 0.0752656 0.0771442 0.0790245
0.0809096 0.0840812 0.0872567 0.0904337 0.0936123 0.0963134 0.0970269 0.0977406 0.0984544 0.0991683
0.0998822 0.107465 0.11505 0.122641 0.130238 0.137841 0.145472 0.153076 0.160675 0.168274
0.175872 0.183492 0.191088 0.198683 0.206277 0.213872 0.221487 0.229081 0.236673 0.244267
0.25186 0.259473 0.267067 0.274659 0.282252 0.289845 0.297456 0.30505 0.312642 0.320234
0.327827 0.335437 0.34303 0.350622 0.358214 0.365807 0.373416 0.381008 0.3886 0.396192
0.403784 0.411392 0.418984 0.426575 0.434167 0.441759 0.449365 0.456957 0.464549 0.47214
0.479732 0.487337 0.494929 0.502519 0.51011 0.517701 0.525305 0.532896 0.540487 0.548077
0.555669 0 0.00126271 0.00252609 0.0037905 0.00505607 0.00632281 0.00823264 0.0101444 0.01206
0.0139789 0.0159031 0.0178201 0.0197499 0.0216925 0.0236477 0.025625 0.0266243 0.0276244 0.0286247
0.029624 0.0306349 0.0308796 0.0311243 0.0313687 0.0316111 0.0317997 0.0325513 0.0332905 0.0340166
0.0347289 0.0354328 0.035879 0.0363234 0.0367662 0.0372074 0.0376427 0.0380792 0.0385128 0.0389438
0.0393741 0.0398023 0.0402335 0.0406646 0.0410959 0.0415278 0.0419626 0.0423975 0.0428318 0.0432668
0.0437027 0.0441408 0.045017 0.0459033 0.0468007 0.0477077 0.0486316 0.0492818 0.0499317 0.0505834
0.0512376 0.0520288 0.0522851 0.0525417 0.0527985 0.0530556 0.0533131 0.054266 0.055216 0.0561682
0.0571258 0.0580845 0.0590512 0.0600178 0.0609852 0.0619549 0.062926 0.064886 0.066841 0.0687908
0.0707442 0.0726816 0.074608 0.0765463 0.0784969 0.0804526 0.082414 0.0863582 0.0902956 0.0942108
0.0981117 0.102017 0.109826 0.117605 0.125321 0.132982 0.140649 0.148348 0.156024 0.163696
0.171363 0.179027 0.186709 0.194373 0.202034 0.209694 0.217353 0.225027 0.232686 0.240343
0.247999 0.255655 0.263325 0.270981 0.278636 0.286289 0.293943 0.301609 0.309263 0.316915
0.324567 0.332218 0.339881 0.347532 0.355183 0.362832 0.370482 0.378141 0.385791 0.393439
0.401087 0.408734 0.41639 0.424038 0.431684 0.43933 0.446976 0.454629 0.462274 0.469919
0.477563 0.485207 0.492857 0.500501 0.508143 0.515785 0.523426 0.531074 0.538715 0.546356
0.553996 0.561636 0 0.00126434 0.00252933 0.00379496 0.00506124 0.00632877 0.00824567 0.010165
0.0120876 0.0140164 0.0159574 0.0169273 0.0179001 0.0188761 0.0198552 0.0208375 0.021825 0.0228205
0.0238249 0.0248384 0.0258622 0.0263796 0.0268987 0.0274215 0.0279479 0.0284806 0.0287585 0.0290378
0.0293191 0.0296029 0.0297029 0.0300118 0.0303223 0.0306337 0.030945 0.0312649 0.031358 0.0314511
0.0315443 0.0316377 0.0317068 0.0317381 0.0317694 0.0318007 0.0318319 0.0318619 0.0320316 0.0322012
0.0323706 0.0325399 0.0327106 0.0328825 0.0330539 0.033225 0.0333933 0.0335191 0.03363 0.0337403
0.0338499 0.0339585 0.0340687 0.0341791 0.034288 0.0343955 0.0345019 0.0345888 0.0346384 0.0346877
0.0347368 0.0347856 0.0348333 0.034935 0.0350362 0.0351369 0.0352371 0.0353354 0.0354522 0.0355678
0.035682 0.0357952 0.0359773 0.0360837 0.0361897 0.0362953 0.0364008 0.0364949 0.0365879 0.0366812
0.0367744 0.0368675 0.0370461 0.0371577 0.0372691 0.0373803 0.0374914 0.0376012 0.0378189 0.0380352
0.0382516 0.0384686 0.0386821 0.038899 0.0391154 0.0393321 0.0395491 0.039766 0.0399854 0.0402034
0.0404217 0.0406402 0.0408594 0.0410782 0.0412967 0.0415158 0.0417356 0.0419575 0.0421806 0.042402
0.0426241 0.0428468 0.0430706 0.0433561 0.0436428 0.0439332 0.0442275 0.0443928 0.044591 0.0447898
0.0449892 0.0451892 0.045391 0.0458744 0.0463512 0.0468274 0.0473001 0.0477964 0.0483093 0.0488129
0.0493198 0.0498313 0.0503602 0.0503612 0.0503622 0.0503632 0.0503642 0.0503652 0.0514286 0.0525312
0.0536832 0.0548041 0.0559419 0.0571369 0.058313 0.059494 0.06068 0.0618636 0.0620912 0.0623186
0.062546 0.0627735 0.0630168 0.0637559 0.0644883 0.0652198 0.0659533 0.0669281 0.0671131 0.0672979
0.0674827 0.0676675 0.067852 0.0690473 0.0702176 0.071386 0.0725525 0.0737112 0.0748477 0.0760092
0.0771736 0.0783396 0.0795067 0.0804778 0.0814495 0.0824245 0.0834024 0.0844697 0.0857629 0.087047
0.088322 0.0895881 0.0908439 0.095307 0.0997493 0.104137 0.108443 0.112631 0.120813 0.128937
0.136996 0.144989 0.152882 0.160646 0.168408 0.176167 0.183924 0.191677 0.199429 0.207179
0.214927 0.222674 0.230418 0.23147 0.232522 0.233575 0.234627 0.235677 0.242367 0.249057
0.255747 0.262437 0.269127 0.276861 0.284603 0.292345 0.300087 0.307829 0.315555 0.323297
0.331039 0.338782 0.346524 0.354243 0.361985 0.369727 0.37747 0.385213 0.392924 0.400666
0.408409 0.416151 0.423893 0.431599 0.439341 0.447082 0.454824 0.462566 0.470266 0.478006
0.485747 0.493488 0.501229 0.508924 0.516663 0.524403 0.532143 0.539883 0.547571 0.555308
0.563045 0.570782 0.57852 0 0.00125407 0.00250907 0.00376539 0.00502314 0.00628246 0.00821365
0.0101475 0.0120842 0.0140278 0.0159858 0.0169584 0.0179349 0.0189154 0.0198999 0.0208886 0.0218829
0.022888 0.0239046 0.0249331 0.0259744 0.0265029 0.0270345 0.0275728 0.0281179 0.0286719 0.0292371
0.0298101 0.0303956 0.0309949 0.0316212 0.0319398 0.0322582 0.0325775 0.0328978 0.0332328 0.0332666
0.0333004 0.0333342 0.033368 0.0333988 0.0335126 0.0336263 0.0337381 0.0338481 0.0339257 0.0340988
0.0342685 0.034435 0.0345978 0.0347656 0.0349071 0.0350458 0.035182 0.0353149 0.0354331 0.0355541
0.0356746 0.0357944 0.0359127 0.036025 0.0361417 0.0362553 0.036366 0.0364761 0.0366217 0.0367288
0.0368357 0.0369424 0.0370489 0.0371466 0.0372878 0.0374291 0.0375721 0.0377167 0.0379538 0.038262
0.0385763 0.038894 0.0392077 0.0395125 0.0399738 0.040428 0.040879 0.0413269 0.0417705 0.0422315
0.0426736 0.0431186 0.0435669 0.0440209 0.0444989 0.0449718 0.0454476 0.0459281 0.0464185 0.0470337
0.04766 0.048293 0.0489342 0.0491034 0.0496301 0.050157 0.0506833 0.0512079 0.051736 0.0528637
0.0539845 0.0551271 0.0562905 0.0575003 0.0587695 0.0600133 0.0612379 0.0624691 0.0636979 0.0644429
0.0651805 0.0659166 0.0666495 0.0675278 0.0680029 0.0684786 0.0689548 0.0694318 0.0699084 0.0699592
0.0700101 0.0700609 0.0701117 0.0701628 0.0707329 0.0713022 0.0718712 0.0724401 0.073008 0.0736323
0.0742486 0.0748634 0.0754767 0.0760908 0.0773309 0.07857 0.079817 0.0810659 0.0823142 0.0848043
0.0873037 0.0897772 0.0922209 0.0946227 0.0976049 0.100575 0.103499 0.106376 0.111932 0.11313
0.114317 0.115496 0.116666 0.117826 0.126338 0.134764 0.143045 0.151144 0.159064 0.166824
0.174621 0.182416 0.19021 0.198003 0.205748 0.213539 0.22133 0.229121 0.236911 0.244645
0.252434 0.260222 0.268011 0.275801 0.283526 0.291314 0.299102 0.30689 0.314679 0.322397
0.330183 0.33797 0.345758 0.353546 0.361257 0.369043 0.376829 0.384615 0.392402 0.400107
0.407892 0.415677 0.423462 0.431248 0.438947 0.44673 0.454513 0.462297 0.470081 0.477774
0.485555 0.493337 0.501118 0.508901 0.516589 0.524368 0.532148 0.539928 0.547707 0.55539
0.563164 0.570939 0.578714 0.58649 0 0.00125899 0.00251865 0.00377899 0.00504075 0.00630415
0.00823277 0.0101643 0.0120988 0.0140406 0.0159966 0.0169695 0.0179464 0.0189275 0.0199127 0.0209022
0.0218966 0.0229016 0.0239183 0.0249467 0.025988 0.026517 0.0270487 0.0275862 0.0281304 0.0286839
0.0292468 0.0298173 0.0303972 0.0309896 0.0316117 0.0319278 0.0322444 0.0325613 0.0328783 0.0332076
0.0334416 0.0336743 0.0339051 0.0341301 0.0342267 0.0343333 0.0344388 0.034543 0.0346462 0.0347522
0.0349498 0.0351408 0.0353255 0.0355044 0.035661 0.0357416 0.0358219 0.0359016 0.0359805 0.0360576
0.036115 0.0361716 0.0362284 0.0362853 0.0363508 0.0364462 0.036541 0.0366351 0.0367287 0.0368525
0.0369252 0.0369977 0.0370702 0.0371426 0.0372115 0.0376687 0.0381337 0.0386122 0.0390988 0.0395133
0.0399737 0.0404234 0.0408741 0.041327 0.0417857 0.0422608 0.0427259 0.0431918 0.04366 0.0441315
0.0446227 0.0451026 0.0455852 0.0460733 0.0465685 0.0476011 0.0486534 0.0497184 0.0507964 0.0514814
0.0515681 0.0516548 0.0517414 0.0518281 0.0519148 0.0530409 0.0541883 0.0553626 0.0565612 0.0577787
0.0590282 0.060268 0.0615098 0.0627633 0.0640088 0.0646341 0.0652462 0.0658602 0.0664772 0.0670953
0.0675691 0.068041 0.0685144 0.0689893 0.0695542 0.0696845 0.0698148 0.069945 0.0700751 0.0702051
0.0714547 0.0727016 0.0739471 0.0751894 0.0764251 0.076717 0.0770074 0.0772983 0.0775897 0.0778961
0.0788475 0.0798008 0.0807558 0.0817126 0.0826688 0.0851461 0.0876106 0.0900618 0.0924713 0.094856
0.0996319 0.104333 0.108938 0.113446 0.117835 0.121824 0.125784 0.129704 0.133584 0.141335
0.144933 0.148495 0.152023 0.155518 0.158979 0.166737 0.174503 0.182267 0.190029 0.197791
0.205533 0.213293 0.221054 0.228814 0.236573 0.244304 0.252062 0.259821 0.26758 0.275339
0.283061 0.290819 0.298577 0.306336 0.314095 0.32181 0.329567 0.337325 0.345084 0.352842
0.360551 0.368308 0.376066 0.383823 0.391582 0.399284 0.407041 0.414797 0.422554 0.430312
0.438009 0.445764 0.45352 0.461276 0.469032 0.476724 0.484478 0.492232 0.499987 0.507742
0.515428 0.523181 0.530934 0.538687 0.54644 0.554121 0.56187 0.569619 0.577369 0.585119
0 0.0012799 0.00256045 0.00384224 0.00512552 0.00641029 0.00831669 0.0102256 0.0121372 0.0140554
0.0159857 0.0169578 0.0179329 0.0189114 0.0198934 0.0208788 0.021873 0.0228763 0.0238893 0.0249124
0.0259476 0.0264149 0.026884 0.0273569 0.0278336 0.0279482 0.0280789 0.0282097 0.0283405 0.0284714
0.0286026 0.0291461 0.0296938 0.0302487 0.0308124 0.031397 0.0314072 0.0314174 0.0314276 0.0314378
0.0314478 0.031506 0.0315642 0.0316224 0.0316806 0.0317328 0.0319561 0.0321793 0.0324025 0.0326254
0.0328521 0.0329445 0.0330369 0.0331291 0.0332211 0.033299 0.0334981 0.0336965 0.0338936 0.0340877
0.0342876 0.0343436 0.0343994 0.0344547 0.0345098 0.0345589 0.0345806 0.0346023 0.0346239 0.0346454
0.0346663 0.034871 0.0350715 0.035268 0.0354566 0.0356352 0.035668 0.0357005 0.035733 0.0357654
0.0357989 0.0358837 0.0359678 0.0360511 0.0361355 0.0362551 0.0363566 0.0364574 0.0365575 0.0366567
0.0367528 0.0368799 0.0370058 0.0371311 0.0372566 0.037457 0.0375269 0.0375967 0.0376668 0.0377374
0.0378072 0.0380197 0.0382305 0.038442 0.0386526 0.0388645 0.0390843 0.0392996 0.0395107 0.0397223
0.0399365 0.0401529 0.0403676 0.0405809 0.0407947 0.0410124 0.0412349 0.0414539 0.0416701 0.0418867
0.0421049 0.0423241 0.0425419 0.0427585 0.0429756 0.0431956 0.0436432 0.0440904 0.0445409 0.0449948
0.045456 0.0459349 0.0463981 0.0468591 0.0473231 0.0477997 0.0482843 0.0487663 0.0492486 0.0497364
0.0502333 0.0512569 0.0522864 0.0533273 0.0544314 0.0555489 0.0558372 0.0561259 0.0564154 0.0567059
0.0570091 0.0578841 0.0587587 0.0596328 0.060513 0.0614042 0.0626165 0.0638022 0.0649872 0.0661848
0.0673858 0.068619 0.0698242 0.0710166 0.0721976 0.0733723 0.0737923 0.074211 0.0746303 0.0750501
0.0754918 0.0761335 0.0767732 0.0774123 0.0780534 0.07869 0.078809 0.078928 0.079047 0.079166
0.079285 0.0816455 0.0840065 0.0863603 0.0886937 0.0910092 0.0955705 0.100184 0.104653 0.108968
0.113187 0.121521 0.12982 0.138046 0.146098 0.153978 0.161725 0.16947 0.177212 0.184951
0.192686 0.200419 0.20815 0.21588 0.223609 0.231335 0.237959 0.244583 0.251205 0.257827
0.26442 0.265525 0.26663 0.267735 0.26884 0.269945 0.277663 0.285382 0.293102 0.300821
0.308541 0.316252 0.323972 0.331692 0.339412 0.347133 0.354837 0.362557 0.370277 0.377998
0.385718 0.393417 0.401137 0.408857 0.416577 0.424298 0.431991 0.439711 0.44743 0.455151
0.462871 0.470558 0.478277 0.485997 0.493716 0.501436 0.509118 0.516837 0.524555 0.532274
0.539992 0.547669 0.555385 0.563102 0.570818 0.578535 0 0.00127753 0.00255577 0.00383512
0.00511577 0.00639771 0.00829932 0.0102029 0.0121093 0.0140205 0.01594 0.0169042 0.0178704 0.0188385
0.0198088 0.0207814 0.0217553 0.0227343 0.0237185 0.0247073 0.0256999 0.0266909 0.0276882 0.0286939
0.0296951 0.0307042 0.0307873 0.0308703 0.0309534 0.0310362 0.0311121 0.032027 0.0329228 0.0337989
0.0346542 0.0355077 0.0359564 0.0364028 0.0368473 0.0372906 0.0377286 0.038168 0.0386051 0.0390412
0.0394767 0.0399064 0.0403404 0.0407745 0.0412089 0.0416435 0.0420786 0.0425154 0.0429511 0.0433877
0.0438252 0.0442642 0.0451429 0.0460293 0.046922 0.047822 0.0487458 0.0496922 0.0506301 0.0515596
0.0524955 0.0534426 0.0542469 0.0550579 0.0558718 0.0566878 0.0580063 0.0580637 0.0581212 0.0581787
0.0582362 0.0582937 0.0592791 0.0602651 0.0612519 0.0622385 0.063224 0.0652281 0.0672178 0.0692002
0.0711924 0.0731844 0.0751514 0.0771453 0.0791535 0.0811661 0.0831843 0.0872316 0.0912901 0.0953056
0.0992664 0.103225 0.106141 0.109063 0.111996 0.114921 0.118457 0.123368 0.128249 0.1331
0.137922 0.142714 0.150429 0.158145 0.165858 0.173569 0.181277 0.188976 0.196679 0.20438
0.21208 0.219779 0.227471 0.235167 0.242862 0.250555 0.258248 0.265936 0.273626 0.281315
0.289004 0.296692 0.304376 0.312061 0.319746 0.32743 0.335114 0.342794 0.350476 0.358157
0.365837 0.373516 0.381193 0.388871 0.396548 0.404224 0.411899 0.419573 0.427247 0.434921
0.442593 0.450265 0.457936 0.465606 0.473276 0.480946 0.488614 0.496282 0.50395 0.511616
0.519282 0.526947 0.534611 0.542274 0.549937 0.5576 0.565263 0 0.00127412 0.00254886
0.00382406 0.00510048 0.00637815 0.00827412 0.0101722 0.0120727 0.0139762 0.0158837 0.0177932 0.0197079
0.0216275 0.0235519 0.0254843 0.0264554 0.0274235 0.0283868 0.0293453 0.030005 0.0310155 0.0320184
0.033011 0.0339937 0.0349648 0.0358746 0.0367812 0.0376836 0.0385831 0.0394735 0.040365 0.0412548
0.0421436 0.0430313 0.043918 0.0456959 0.0474907 0.0492992 0.0511172 0.0529512 0.0539137 0.0548777
0.0558445 0.0568139 0.0583772 0.0591439 0.0599119 0.0606813 0.061452 0.0622239 0.0640987 0.0659764
0.0678569 0.0697402 0.0716258 0.073523 0.0754107 0.0772996 0.0791902 0.0810818 0.0848805 0.088679
0.092483 0.0962924 0.100117 0.107834 0.115556 0.123227 0.130853 0.138492 0.146145 0.153796
0.161445 0.169093 0.176739 0.184389 0.192036 0.199681 0.207325 0.214968 0.222614 0.230256
0.237898 0.245538 0.253177 0.26082 0.26846 0.276098 0.283736 0.291373 0.299013 0.306651
0.314287 0.321923 0.329557 0.337195 0.34483 0.352464 0.360097 0.36773 0.375365 0.382998
0.39063 0.398261 0.405891 0.413524 0.421155 0.428785 0.436414 0.444042 0.451673 0.459301
0.466929 0.474556 0.482183 0.489811 0.497438 0.505064 0.512689 0.520313 0.527939 0.535563
0.543186 0.550809 0.558432 0 0.00127145 0.00254329 0.00381566 0.00508863 0.00636221 0.0101418
0.0139329 0.0177234 0.0215107 0.0253021 0.0257968 0.0262902 0.0267827 0.0272744 0.0277047 0.0290917
0.0304736 0.0318504 0.0332221 0.0345914 0.0364335 0.038266 0.0400817 0.0418933 0.0436996 0.0455114