# vtk DataFile Version 2.0
tracks
ASCII
DATASET POLYDATA
POINTS 2585 float
-1.001 -0.05 0.0011 -0.900789 -0.0500215 0.00109731 -0.800577 -0.050043 0.00109463 -0.700366 -0.0500645
0.00109196 -0.600155 -0.0500859 0.00108929 -0.499943 -0.0501072 0.00108663 -0.424945 -0.0501111 0.00107894
-0.349947 -0.050152 0.00106881 -0.274949 -0.0501926 0.00105878 -0.19995 -0.0502327 0.00104885 -0.124952
-0.0502725 0.00103901 -0.0499538 -0.050282 0.00103923 0.0250446 -0.0502908 0.00104796 0.100043 -0.0502998
0.00105675 0.175041 -0.0503088 0.00106562 0.25004 -0.0503179 0.00107456 0.400037 -0.0503119 0.00109063
0.550035 -0.0503101 0.00110484 0.700032 -0.0503083 0.00111924 0.85003 -0.0503064 0.00113383 1.00003
-0.0503046 0.0011486 1.15003 -0.0503152 0.00115579 1.30002 -0.0503209 0.00116027 1.45002 -0.0503267
0.00116476 1.60002 -0.0503325 0.00116927 1.75002 -0.0503382 0.0011738 1.90002 -0.0503468 0.00117665
2.05002 -0.0503533 0.00117858 2.20001 -0.0503598 0.00118052 2.35001 -0.0503663 0.00118245 2.50001
-0.0503729 0.0011844 2.65001 -0.0503808 0.00118543 2.80001 -0.0503889 0.00118612 2.95001 -0.050397
0.00118682 3.10001 -0.0504052 0.00118751 3.25001 -0.0504133 0.0011882 3.40001 -0.0504211 0.00118847
3.55001 -0.05043 0.00118905 3.70001 -0.0504388 0.00118962 3.85001 -0.0504477 0.0011902 4.00001
-0.0504565 0.00119078 4.15 -0.0504642 0.00119085 4.3 -0.0504739 0.00119152 4.45 -0.0504835
0.00119219 4.6 -0.0504931 0.00119286 4.75 -0.0505028 0.00119353 4.9 -0.0505104 0.00119352
5.05 -0.0505205 0.00119434 5.2 -0.0505306 0.00119517 5.35 -0.0505407 0.001196 5.5
-0.0505508 0.00119684 5.65 -0.0505584 0.00119678 5.8 -0.0505688 0.00119777 5.95 -0.0505792
0.00119876 6.1 -0.0505897 0.00119975 6.25 -0.0506001 0.00120074 6.4 -0.0506075 0.00120066
6.55 -0.0506182 0.00120179 6.7 -0.0506288 0.00120291 6.85 -0.0506395 0.00120404 7
-0.0506501 0.00120517 7.15 -0.0506575 0.00120507 7.3 -0.0506683 0.0012063 7.45 -0.0506791
0.00120753 7.6 -0.0506899 0.00120877 7.75 -0.0507007 0.00121 7.9 -0.050708 0.00120989
8.05 -0.0507189 0.00121121 8.2 -0.0507298 0.00121253 8.35 -0.0507407 0.00121386 8.5
-0.0507516 0.00121518 8.65 -0.0507589 0.00121507 8.8 -0.0507698 0.00121646 8.95 -0.0507808
0.00121786 9.1 -0.0507918 0.00121927 9.25 -0.0508028 0.00122067 9.4 -0.05081 0.00122054
9.55 -0.050867 0.00122265 9.7 -0.0509751 0.0012255 9.85 -0.0511343 0.00122907 10
-0.0513446 0.00123339 -1.001 -0.05 0.0537316 -0.900807 -0.0501059 0.0535766 -0.800614 -0.0502119
0.0533945 -0.700421 -0.0503415 0.0531786 -0.600229 -0.0505021 0.052927 -0.500035 -0.0506936 0.0526399
-0.425004 -0.0509417 0.0524174 -0.349973 -0.0512792 0.0521278 -0.274943 -0.051664 0.0518591 -0.199912
-0.0520824 0.0516327 -0.124879 -0.0524851 0.0514886 -0.0498864 -0.0527515 0.0515252 0.0251065 -0.0529717
0.0516906 0.100099 -0.0531871 0.0519244 0.175092 -0.0534118 0.0522064 0.250087 -0.0536317 0.0525235
0.400077 -0.0540177 0.0531584 0.550067 -0.0544014 0.0536727 0.700057 -0.0547439 0.0541384 0.850047
-0.0550451 0.054555 1.00003 -0.055313 0.0549221 1.14663 -0.0556801 0.0551996 1.29323 -0.0560159
0.0554585 1.43983 -0.0563489 0.0556839 1.58642 -0.0566793 0.0558757 1.70367 -0.0569415 0.0560021
1.71294 -0.0569629 0.0560107 1.72221 -0.0569845 0.0560192 1.73148 -0.0570062 0.0560277 1.74075
-0.057028 0.0560361 1.75002 -0.0570499 0.0560443 1.90002 -0.0574063 0.0561772 2.05002 -0.0577583
0.0562928 2.20001 -0.0581065 0.0563908 2.35001 -0.0584509 0.0564711 2.50001 -0.0587914 0.0565338
2.65001 -0.059137 0.0565854 2.80001 -0.0594824 0.0566303 2.95001 -0.059827 0.0566675 3.10001
-0.0601707 0.056697 3.25001 -0.0605136 0.0567189 3.40001 -0.0608574 0.0567356 3.55001 -0.0612026
0.0567516 3.70001 -0.0615464 0.0567656 3.85001 -0.0618887 0.0567776 4.00001 -0.0622295 0.0567875
4.15 -0.0625679 0.056795 4.3 -0.0629102 0.0568035 4.45 -0.0632511 0.0568113 4.6
-0.0635906 0.0568183 4.75 -0.0639285 0.0568245 4.9 -0.0642615 0.0568285 5.05 -0.0646
0.0568344 5.2 -0.0649371 0.0568399 5.35 -0.0652729 0.056845 5.5 -0.0656073 0.0568497
5.65 -0.0659347 0.0568519 5.8 -0.0662688 0.0568566 5.95 -0.0666017 0.0568611 6.1
-0.0669333 0.0568653 6.25 -0.0672637 0.0568693 6.4 -0.067586 0.0568704 6.55 -0.0679156
0.0568744 6.7 -0.068244 0.0568784 6.85 -0.0685712 0.0568821 7 -0.0688973 0.0568857
7.15 -0.0692144 0.056886 7.3 -0.0695393 0.0568897 7.45 -0.0698631 0.0568933 7.6
-0.0701858 0.0568968 7.75 -0.0705073 0.0569001 7.9 -0.0708192 0.0568999 8.05 -0.0711395
0.0569034 8.2 -0.0714586 0.0569069 8.35 -0.0717766 0.0569103 8.5 -0.0720934 0.0569138
8.65 -0.0724003 0.0569135 8.8 -0.0727158 0.056917 8.95 -0.0730302 0.0569204 9.1
-0.0733433 0.0569237 9.25 -0.0736552 0.0569269 9.4 -0.073957 0.0569263 9.55 -0.074268
0.0569296 9.7 -0.0745785 0.0569328 9.85 -0.0748884 0.0569361 10 -0.0751979 0.0569393
-1.001 -0.05 0.106363 -0.900818 -0.0500778 0.106138 -0.800636 -0.0501533 0.105866 -0.700455
-0.0502555 0.105547 -0.600274 -0.0504278 0.105006 -0.50009 -0.0506699 0.104245 -0.424996 -0.0509569
0.10366 -0.349901 -0.0513051 0.103055 -0.274807 -0.0516575 0.102518 -0.199711 -0.0519555 0.102089
-0.124607 -0.0522975 0.101987 -0.0496047 -0.0525453 0.102099 0.0253975 -0.0527382 0.102328 0.100399
-0.0529182 0.10264 0.175401 -0.0531186 0.103036 0.250411 -0.0533391 0.103517 0.400346 -0.0537454
0.104516 0.550283 -0.0541502 0.105387 0.70022 -0.0545162 0.10617 0.850157 -0.0548515 0.106787
1.00009 -0.0551559 0.107236 1.15007 -0.0555953 0.107501 1.30006 -0.0558914 0.107797 1.45005
-0.0561365 0.108073 1.60003 -0.0563757 0.108316 1.75002 -0.056609 0.108526 1.90002 -0.0569156
0.10867 2.05002 -0.0571594 0.108825 2.20001 -0.0573975 0.108964 2.35001 -0.057633 0.109085
2.50001 -0.057866 0.10919 2.65001 -0.058155 0.109259 2.80001 -0.0584024 0.109326 2.95001
-0.0586487 0.109386 3.10001 -0.0588942 0.109438 3.25001 -0.0591391 0.109483 3.40001 -0.0594264
0.109517 3.55001 -0.0596778 0.10955 3.70001 -0.0599272 0.109581 3.85001 -0.0601752 0.10961
4 -0.0604215 0.109637 4.15 -0.0607027 0.109662 4.3 -0.0609541 0.109683 4.45
-0.0612036 0.109704 4.6 -0.0614515 0.109723 4.75 -0.061698 0.109742 4.9 -0.0619728
0.109764 5.05 -0.0622222 0.109779 5.2 -0.06247 0.109793 5.35 -0.0627163 0.109807
5.5 -0.0629612 0.10982 5.65 -0.0632297 0.109841 5.8 -0.0634766 0.109851 5.95
-0.063722 0.109862 6.1 -0.0639662 0.109872 6.25 -0.0642091 0.109881 6.4 -0.0644715
0.1099 6.55 -0.0647156 0.109908 6.7 -0.0649582 0.109915 6.85 -0.0651997 0.109922
7 -0.0654399 0.109929 7.15 -0.0656966 0.109947 7.3 -0.0659375 0.109952 7.45
-0.0661771 0.109957 7.6 -0.0664155 0.109962 7.75 -0.0666528 0.109967 7.9 -0.0669038
0.109984 8.05 -0.0671414 0.109987 8.2 -0.0673777 0.10999 8.35 -0.0676129 0.109994
8.5 -0.067847 0.109997 8.65 -0.0680925 0.110014 8.8 -0.0683266 0.110016 8.95
-0.0685593 0.110018 9.1 -0.068791 0.11002 9.25 -0.0690214 0.110022 9.4 -0.0692612
0.110038 9.55 -0.069492 0.110039 9.7 -0.0697221 0.110039 9.85 -0.0699517 0.11004
10 -0.0701809 0.11004 -1.001 -0.05 0.158995 -0.900796 -0.0500883 0.15877 -0.800593
-0.0501924 0.158425 -0.700392 -0.0503536 0.157689 -0.600196 -0.0505848 0.156478 -0.499992 -0.0508776
0.15464 -0.42472 -0.0514842 0.153038 -0.349437 -0.051951 0.152119 -0.274149 -0.052347 0.151557
-0.19886 -0.0527409 0.151264 -0.123699 -0.0530572 0.151317 -0.0487805 -0.0531793 0.15148 0.0261371
-0.053257 0.151959 0.101053 -0.0533961 0.152663 0.175968 -0.0535621 0.153461 0.250944 -0.0537155
0.154288 0.400783 -0.0539263 0.155707 0.550624 -0.0544311 0.156883 0.700468 -0.0549015 0.157636
0.850313 -0.0552981 0.158234 1.00014 -0.0556637 0.158664 1.15012 -0.0561651 0.158909 1.30009
-0.0565226 0.159186 1.45007 -0.056787 0.159454 1.60005 -0.0569746 0.159708 1.75002 -0.0571563
0.159929 1.90002 -0.0574124 0.160084 2.05002 -0.0576052 0.160249 2.20002 -0.057786 0.160401
2.35001 -0.057958 0.160537 2.50001 -0.0581277 0.160656 2.65001 -0.0583537 0.160739 2.80001
-0.0585381 0.160821 2.95001 -0.0587203 0.160896 3.10001 -0.0589008 0.160964 3.25001 -0.0590807
0.161024 3.40001 -0.0593031 0.161074 3.55001 -0.0594897 0.161122 3.70001 -0.0596736 0.161169
3.85001 -0.0598552 0.161215 4 -0.0600353 0.161258 4.15 -0.0602501 0.1613 4.3
-0.0604353 0.161337 4.45 -0.0606179 0.161374 4.6 -0.0607983 0.161411 4.75 -0.0609773
0.161446 4.9 -0.0611843 0.161485 5.05 -0.0613663 0.161517 5.2 -0.0615461 0.161548
5.35 -0.0617239 0.161579 5.5 -0.0619004 0.16161 5.65 -0.0621001 0.161647 5.8
-0.0622785 0.161675 5.95 -0.062455 0.161702 6.1 -0.0626299 0.161729 6.25 -0.0628035
0.161756 6.4 -0.0629963 0.161792 6.55 -0.0631711 0.161817 6.7 -0.0633441 0.161841
6.85 -0.0635155 0.161865 7 -0.0636858 0.161889 7.15 -0.063872 0.161923 7.3
-0.064043 0.161946 7.45 -0.0642123 0.161968 7.6 -0.0643802 0.161989 7.75 -0.0645469
0.162011 7.9 -0.0647269 0.162045 8.05 -0.064894 0.162065 8.2 -0.0650596 0.162085
8.35 -0.0652238 0.162105 8.5 -0.065387 0.162125 8.65 -0.0655611 0.162158 8.8
-0.0657241 0.162177 8.95 -0.0658857 0.162196 9.1 -0.0660458 0.162215 9.25 -0.0662048
0.162233 9.4 -0.0663728 0.162265 9.55 -0.066532 0.162283 9.7 -0.0666904 0.162299
9.85 -0.0668481 0.162316 10 -0.0670053 0.162332 -1.001 -0.05 0.211626 -0.947633
-0.0500804 0.211469 -0.894266 -0.0501654 0.211279 -0.8409 -0.050255 0.211055 -0.787534 -0.0503891
0.210764 -0.724323 -0.0506326 0.210286 -0.679444 -0.05091 0.209636 -0.634569 -0.0512446 0.208758
-0.589698 -0.051583 0.207743 -0.544829 -0.0519265 0.20659 -0.499928 -0.0522763 0.205297 -0.469403
-0.0525703 0.204243 -0.438879 -0.0528745 0.203126 -0.408351 -0.0531632 0.202136 -0.377819 -0.0534375
0.201268 -0.329546 -0.0538559 0.200029 -0.288597 -0.054195 0.199123 -0.247643 -0.0545338 0.198434
-0.206686 -0.0548768 0.198056 -0.165727 -0.0551843 0.197966 -0.124884 -0.0554173 0.198138 -0.0496126
-0.0557229 0.198847 0.025657 -0.0558596 0.199795 0.100922 -0.0559683 0.201074 0.176185 -0.0561103
0.202432 0.251487 -0.0562456 0.203584 0.25196 -0.0562463 0.20359 0.252432 -0.056247 0.203596
0.252905 -0.0562477 0.203602 0.253378 -0.0562484 0.203608 0.253853 -0.0562491 0.203615 0.328137
-0.0563618 0.204584 0.402422 -0.0564765 0.205427 0.476708 -0.0565933 0.206145 0.550996 -0.0567388
[...]
POINT_DATA 2585
FIELD attributes 4
age 1 2585 float
0 0.00501121 0.0100224 0.0150336 0.0200448 0.0250561 0.0288056 0.0325533 0.036301 0.0400488 0.0437965
0.0475449 0.0512906 0.0550362 0.0587817 0.0625273 0.070024 0.077523 0.0850219 0.0925209 0.10002
0.10752 0.115019 0.122519 0.130019 0.137519 0.145019 0.152519 0.160019 0.167518 0.175018
0.182518 0.190018 0.197517 0.205017 0.212517 0.220017 0.227516 0.235016 0.242516 0.250015
0.257515 0.265015 0.272515 0.280015 0.287514 0.295014 0.302514 0.310014 0.317513 0.325013
0.332513 0.340013 0.347512 0.355012 0.362512 0.370012 0.377512 0.385011 0.392511 0.400011
0.407511 0.415011 0.42251 0.43001 0.43751 0.44501 0.45251 0.460009 0.467509 0.475009
0.482509 0.490009 0.497508 0.505008 0.512508 0.520008 0.527507 0.535005 0.542503 0.55
0 0.00502603 0.0100533 0.0150747 0.0200879 0.0250931 0.0288322 0.0325654 0.0362919 0.0400116
0.043725 0.0474313 0.0511305 0.054828 0.0585254 0.0622245 0.0696353 0.0770713 0.084522 0.0919876
0.0994678 0.106792 0.114117 0.121443 0.128771 0.134633 0.135096 0.13556 0.136023 0.136487
0.13695 0.144451 0.151951 0.15945 0.166949 0.174447 0.181945 0.189443 0.19694 0.204437
0.211934 0.219431 0.226928 0.234425 0.241922 0.24942 0.256918 0.264415 0.271912 0.27941
0.286908 0.294406 0.301904 0.309402 0.3169 0.324399 0.331898 0.339396 0.346895 0.354393
0.361892 0.369392 0.37689 0.384389 0.391889 0.399388 0.406888 0.414387 0.421887 0.429386
0.436886 0.444387 0.451887 0.459387 0.466887 0.474387 0.481888 0.489388 0.496889 0.50439
0.511891 0.519392 0.526893 0.534394 0.541895 0.549396 0 0.00502802 0.0100578 0.0150819
0.0200994 0.0251106 0.0288576 0.0325976 0.0363284 0.0400544 0.0437705 0.0474753 0.0511743 0.0548721
0.0585691 0.0622655 0.0696639 0.0770893 0.0845328 0.0919984 0.0994857 0.106989 0.114493 0.122001
0.129509 0.137019 0.144534 0.152043 0.159551 0.167059 0.174566 0.182079 0.189584 0.19709
0.204595 0.2121 0.219612 0.227117 0.234622 0.242127 0.249633 0.257145 0.26465 0.272156
0.279661 0.287167 0.29468 0.302186 0.309692 0.317198 0.324704 0.332217 0.339723 0.347229
0.354736 0.362242 0.369756 0.377263 0.384769 0.392276 0.399783 0.407297 0.414804 0.422311
0.429818 0.437325 0.44484 0.452347 0.459855 0.467362 0.47487 0.482385 0.489893 0.497401
0.504909 0.512417 0.519932 0.527441 0.534949 0.542457 0.549965 0 0.00503012 0.0100663
0.0150996 0.020127 0.0251496 0.0289154 0.0326693 0.0364113 0.0401429 0.0438577 0.0475528 0.0512423
0.0549308 0.0586185 0.0623097 0.0696968 0.0771202 0.0845742 0.0920447 0.0995364 0.107049 0.114562
0.12208 0.129603 0.137126 0.144656 0.152179 0.159702 0.167225 0.174748 0.182276 0.189797
0.197317 0.204838 0.212358 0.219885 0.227405 0.234926 0.242446 0.249967 0.257494 0.265015
0.272536 0.280056 0.287577 0.295105 0.302627 0.310148 0.317669 0.32519 0.332719 0.34024
0.347762 0.355284 0.362805 0.370334 0.377856 0.385378 0.3929 0.400422 0.407952 0.415474
0.422996 0.430519 0.438041 0.445571 0.453094 0.460617 0.46814 0.475662 0.483193 0.490716
0.498239 0.505762 0.513286 0.520817 0.52834 0.535864 0.543387 0.550911 0 0.00268267
0.00536702 0.00805306 0.0107385 0.0139171 0.0161725 0.0184275 0.0206817 0.0229351 0.0251894 0.0267196
0.0282478 0.029773 0.0312953 0.0336965 0.0357257 0.0377491 0.0397671 0.0417796 0.0437806 0.0474594
0.0511396 0.054821 0.0585089 0.0622096 0.0622329 0.0622561 0.0622794 0.0623027 0.0623261 0.0659855
0.0696547 0.0733339 0.0770233 0.0807227 0.0813119 0.0819012 0.0824905 0.0830798 0.0836549 0.0868148
0.0899773 0.0931425 0.0963102 0.09948 0.107001 0.114523 0.12205 0.129582 0.137118 0.144662
0.152199 0.159736 0.167273 0.174809 0.182352 0.189888 0.197423 0.204958 0.212493 0.220035
0.22757 0.235105 0.24264 0.250175 0.257717 0.265252 0.272788 0.280323 0.287859 0.295402
0.302937 0.310473 0.318009 0.325545 0.333088 0.340624 0.348161 0.355697 0.363233 0.370777
0.378314 0.38585 0.393387 0.400924 0.408468 0.416005 0.423542 0.431079 0.438616 0.446161
0.453698 0.461236 0.468773 0.476311 0.483856 0.491394 0.498932 0.506469 0.514008 0.521553
0.529091 0.536629 0.544168 0.551706 0 0.00126444 0.00252927 0.00379477 0.00506108 0.00632821
0.0101157 0.0139116 0.0177191 0.0215331 0.0253297 0.0269137 0.0284875 0.0300545 0.0316142 0.0330057
0.033331 0.0336559 0.0339805 0.0343048 0.0346291 0.0364573 0.0382785 0.0400907 0.0418976 0.0436952
0.0454957 0.0473008 0.049118 0.0509401 0.0527663 0.0529179 0.0530694 0.053221 0.0533727 0.0535317
0.05521 0.056891 0.0585747 0.0602614 0.0619506 0.0656463 0.0693589 0.0730894 0.0768307 0.0805812
0.0843448 0.0881075 0.0918709 0.0956371 0.0994056 0.106941 0.11448 0.122022 0.129568 0.137119
0.144685 0.152238 0.159791 0.167344 0.174897 0.182457 0.190009 0.197561 0.205113 0.212664
0.220223 0.227774 0.235325 0.242876 0.250428 0.257986 0.265538 0.273089 0.280641 0.288193
0.295752 0.303304 0.310856 0.318408 0.32596 0.33352 0.341072 0.348624 0.356177 0.363729
0.371289 0.378842 0.386395 0.393947 0.4015 0.40906 0.416613 0.424166 0.431719 0.439273
0.446833 0.454387 0.46194 0.469493 0.477047 0.484608 0.492161 0.499715 0.507269 0.514822
0.522384 0.529938 0.537491 0.545045 0.552599 0 0.00126545 0.00253141 0.00379789 0.00506488
0.00633241 0.0082268 0.0101236 0.0120228 0.0139249 0.0158291 0.0177465 0.0196688 0.0215921 0.0235186
0.0254574 0.0264285 0.027397 0.028361 0.0293206 0.03028 0.0307568 0.031232 0.0317052 0.0321762
0.0326906 0.0331449 0.0335971 0.0340473 0.0344956 0.0349413 0.0358516 0.0367588 0.0376618 0.0385606
0.0394505 0.0403397 0.0412274 0.0421144 0.0430011 0.0438883 0.0452306 0.0465796 0.0479356 0.0492876
0.0528831 0.054712 0.0565545 0.0584085 0.060269 0.0621304 0.0640017 0.0658742 0.0677487 0.0696259
0.0715072 0.073396 0.0752791 0.0771584 0.0790396 0.0809259 0.0840442 0.0871666 0.0902907 0.0934163
0.0960675 0.0968381 0.0976088 0.0983797 0.0991507 0.0999218 0.107516 0.115112 0.122712 0.130315
0.137922 0.145555 0.153162 0.160765 0.168367 0.175969 0.18359 0.19119 0.198788 0.206386
0.213984 0.221601 0.229198 0.236794 0.244391 0.251987 0.259602 0.267199 0.274794 0.282391
0.289987 0.2976 0.305196 0.312792 0.320388 0.327984 0.335595 0.343191 0.350786 0.358382
0.365977 0.373588 0.381183 0.388778 0.396373 0.403968 0.411577 0.419172 0.426767 0.434361
0.441956 0.449564 0.457159 0.464753 0.472347 0.479942 0.487549 0.495143 0.502737 0.51033
0.517924 0.52553 0.533124 0.540717 0.54831 0.555904 0 0.00126279 0.00252625 0.00379075
0.00505643 0.00632329 0.00823332 0.0101453 0.0120611 0.0139803 0.0159047 0.017822 0.0197522 0.0216953
0.0236511 0.0256292 0.0266292 0.02763 0.0286312 0.0296316 0.0306439 0.0308915 0.0311392 0.0313866
0.031632 0.0318218 0.0325723 0.0333102 0.0340351 0.0347464 0.0354498 0.035897 0.0363424 0.0367864
0.0372288 0.0376653 0.0381028 0.0385374 0.0389696 0.0394011 0.0398301 0.040262 0.040694 0.0411261
0.0415587 0.041994 0.0424295 0.0428644 0.0432996 0.0437357 0.0441741 0.0450511 0.0459374 0.0468341
0.0477424 0.0486679 0.0494155 0.0501619 0.0509107 0.0516628 0.0525916 0.0527453 0.052899 0.0530528
0.0532066 0.0533606 0.0543151 0.0552683 0.0562236 0.0571815 0.0581416 0.0591107 0.060079 0.0610483
0.0620206 0.0629947 0.0649646 0.0669293 0.0688886 0.0708522 0.0727989 0.0747307 0.0766782 0.0786414
0.0806088 0.0825803 0.0865422 0.0904955 0.0944226 0.0983342 0.102249 0.110078 0.117873 0.125597
0.133263 0.140931 0.148629 0.156306 0.163978 0.171645 0.179311 0.186992 0.194656 0.202318
0.209978 0.217637 0.225311 0.23297 0.240628 0.248284 0.255941 0.26361 0.271267 0.278922
0.286576 0.29423 0.301896 0.309549 0.317202 0.324854 0.332506 0.340169 0.34782 0.355471
0.363121 0.370771 0.37843 0.386079 0.393728 0.401376 0.409024 0.41668 0.424328 0.431974
0.43962 0.447266 0.45492 0.462565 0.47021 0.477854 0.485498 0.493149 0.500793 0.508436
0.516078 0.523719 0.531367 0.539008 0.54665 0.554291 0.561931 0 0.00126441 0.00252948
0.00379519 0.00506155 0.00632916 0.00824621 0.0101657 0.0120884 0.0140175 0.0159587 0.0169288 0.0179017
0.0188779 0.0198572 0.0208397 0.0218273 0.022823 0.0238278 0.0248415 0.0258656 0.0263832 0.0269026
0.0274257 0.0279523 0.0284854 0.0287763 0.0290686 0.0293632 0.0296605 0.0297583 0.030058 0.030359
0.0306609 0.0309626 0.0312725 0.0313696 0.0314668 0.031564 0.0316616 0.0317326 0.0317677 0.0318028
0.0318378 0.0318729 0.0319063 0.0320693 0.0322322 0.032395 0.0325576 0.0327215 0.0329008 0.0330796
0.0332579 0.0334334 0.0335627 0.033668 0.0337727 0.0338768 0.03398 0.0340847 0.0341953 0.0343043
0.0344119 0.0345184 0.0346054 0.0346602 0.0347147 0.0347689 0.0348228 0.0348754 0.0349727 0.0350696
0.035166 0.035262 0.0353558 0.0354786 0.0355999 0.0357197 0.0358385 0.0360329 0.0361326 0.0362318
0.0363308 0.0364296 0.0365187 0.036604 0.0366895 0.0367749 0.0368603 0.0370135 0.0371378 0.0372619
0.0373858 0.0375096 0.0376315 0.0378506 0.0380681 0.0382855 0.0385036 0.0387181 0.0389364 0.039154
0.0393719 0.0395902 0.0398083 0.0400293 0.0402486 0.0404682 0.040688 0.0409085 0.0411289 0.0413488
0.0415688 0.0417896 0.042013 0.0422376 0.0424604 0.0426832 0.0429065 0.043131 0.0434637 0.0437979
0.0441377 0.0444832 0.0446505 0.0448123 0.0449745 0.045137 0.0453 0.045464 0.0459513 0.046431
0.0469108 0.0473863 0.0478829 0.0484004 0.0489073 0.0494142 0.0499259 0.0504448 0.0505211 0.0505974
0.0506739 0.0507506 0.0508256 0.0518282 0.052873 0.0539627 0.055014 0.0560766 0.0572801 0.0584611
0.0596423 0.0608293 0.0620164 0.0624539 0.0628903 0.0633264 0.0637629 0.0642614 0.065027 0.0657853
0.0665395 0.0672956 0.0680505 0.0682576 0.068464 0.0686695 0.0688739 0.069076 0.0700554 0.0710333
0.0720095 0.0729839 0.0739542 0.0751073 0.0762802 0.0774568 0.0786349 0.0798154 0.0813936 0.0829731
0.0845601 0.0861489 0.0882441 0.088859 0.0894717 0.0900823 0.0906907 0.0912967 0.0958045 0.100288
0.104696 0.109013 0.113199 0.121371 0.12948 0.137516 0.145479 0.153364 0.161124 0.168885
0.176643 0.184398 0.192151 0.1999 0.207649 0.215395 0.22314 0.230883 0.238623 0.246363
0.254101 0.261838 0.269573 0.269671 0.269769 0.269866 0.269964 0.270062 0.277698 0.285334
0.29297 0.300606 0.308242 0.315969 0.323702 0.331436 0.339169 0.346903 0.354622 0.362355
0.370088 0.377822 0.385555 0.393267 0.401 0.408732 0.416465 0.424197 0.431904 0.439636
0.447367 0.455099 0.46283 0.470531 0.478262 0.485992 0.493723 0.501454 0.509149 0.516879
0.524608 0.532337 0.540066 0.547756 0.555483 0.56321 0.570938 0.578666 0 0.00125411
0.00250916 0.00376553 0.00502334 0.00628272 0.00821402 0.010148 0.0120848 0.0140287 0.0159868 0.0169595
0.0179361 0.0189167 0.0199014 0.0208902 0.0218846 0.0228899 0.0239068 0.0249355 0.0259771 0.0265057
0.0270375 0.0275761 0.0281215 0.0286757 0.0292412 0.0298145 0.0304007 0.031001 0.0316277 0.0319466
0.0322654 0.0325849 0.0329055 0.0332405 0.0333134 0.0333862 0.0334591 0.0335321 0.0335912 0.0336659
0.0337392 0.0338118 0.0338837 0.0339447 0.0341159 0.0342839 0.0344487 0.03461 0.0347767 0.0349194
0.0350593 0.0351966 0.0353305 0.0354499 0.0355702 0.03569 0.0358092 0.0359268 0.0360386 0.0361559
0.0362701 0.0363813 0.036492 0.0366382 0.0367453 0.0368523 0.0369591 0.0370657 0.0371635 0.0373614
0.0375593 0.0377606 0.0379651 0.0383964 0.0386282 0.03886 0.0390898 0.0393177 0.0395409 0.0400039
0.040461 0.0409146 0.0413651 0.0418108 0.0422672 0.0427093 0.0431546 0.0436031 0.0440545 0.0445273
0.0449942 0.0454729 0.0459564 0.0464477 0.0473075 0.0481874 0.0490815 0.0499683 0.0517858 0.0529093
0.0540347 0.0551837 0.0563524 0.0575538 0.0588118 0.0600425 0.0612573 0.0624814 0.063711 0.064582
0.0654407 0.0662988 0.067152 0.0682611 0.0685911 0.0689213 0.0692516 0.0695825 0.0699137 0.070654
0.0713951 0.0721367 0.0728795 0.0737855 0.0742551 0.0747245 0.0751937 0.0756616 0.0761275 0.0773695
0.0786157 0.0798697 0.0811243 0.0823784 0.0848684 0.0873622 0.0898254 0.0922456 0.0946404 0.0994732
0.104258 0.108904 0.113412 0.117768 0.121593 0.125404 0.1292 0.13298 0.137828 0.142098
0.146319 0.150492 0.154619 0.158699 0.166459 0.174227 0.181993 0.189759 0.197523 0.205267
0.21303 0.220792 0.228554 0.236315 0.244049 0.251809 0.259568 0.267328 0.275088 0.282813
0.290571 0.29833 0.306088 0.313847 0.321565 0.329322 0.33708 0.344838 0.352595 0.360307
0.368063 0.375819 0.383576 0.391332 0.399038 0.406792 0.414547 0.422303 0.430058 0.437757
0.445511 0.453264 0.461018 0.468772 0.476466 0.484217 0.491969 0.499721 0.507473 0.515162
0.522912 0.530662 0.538412 0.546162 0.553846 0.561592 0.569339 0.577086 0.584834 0
0.00125903 0.00251874 0.00377913 0.00504093 0.00630439 0.00823307 0.0101647 0.0120992 0.0140412 0.0159972
0.0169702 0.0179471 0.0189282 0.0199134 0.020903 0.0218975 0.0229025 0.0239193 0.0249478 0.0259893
0.0265183 0.0270501 0.0275878 0.0281321 0.0286858 0.0292487 0.0298193 0.0303995 0.0309921 0.0316144
0.0319305 0.0322473 0.0325645 0.0328817 0.0332114 0.0334494 0.033686 0.0339207 0.0341493 0.034246
0.0343496 0.0344521 0.0345536 0.0346539 0.0347569 0.0349583 0.0351528 0.0353407 0.0355227 0.0356772
0.035753 0.0358285 0.0359033 0.0359774 0.0360602 0.036061 0.0360619 0.0360627 0.0360635 0.0360643
0.0362096 0.0363535 0.0364961 0.0366372 0.0368441 0.0369203 0.0369964 0.0370724 0.0371483 0.0372202
0.0376787 0.038142 0.0386187 0.0391032 0.0395178 0.0399799 0.0404311 0.0408809 0.0413329 0.0417929
0.0422688 0.042735 0.0431978 0.043663 0.0441376 0.0446296 0.0451124 0.0455897 0.0460725 0.0465691
0.0476026 0.0486585 0.0497263 0.0508137 0.0515737 0.0516465 0.0517193 0.051792 0.0518647 0.0519373
0.0530664 0.0542204 0.0554019 0.0566066 0.0578315 0.0591053 0.0603554 0.0615855 0.0628317 0.0640716
0.0646951 0.0653081 0.0659184 0.0665275 0.0671395 0.0677656 0.0683819 0.068989 0.0695974 0.0702119
0.0714619 0.072722 0.073979 0.075231 0.0764726 0.0772409 0.0780016 0.0787638 0.0795278 0.0803834
0.0808524 0.0813217 0.0817912 0.0822618 0.0827334 0.0852427 0.0877373 0.0902172 0.0926386 0.0950311
0.0997925 0.104506 0.109108 0.113598 0.117944 0.124978 0.131919 0.138739 0.145439 0.159194
0.163297 0.167399 0.171501 0.175601 0.179795 0.183424 0.187051 0.190679 0.194306 0.197933
0.205673 0.213416 0.221158 0.2289 0.236641 0.24437 0.25211 0.25985 0.267591 0.275331
0.283051 0.29079 0.29853 0.306269 0.314009 0.321722 0.32946 0.337199 0.344938 0.352677
0.360384 0.368122 0.37586 0.383598 0.391336 0.399036 0.406773 0.41451 0.422247 0.429984
0.43768 0.445415 0.453151 0.460887 0.468623 0.476313 0.484047 0.491781 0.499516 0.507251
0.514936 0.522669 0.530401 0.538134 0.545867 0.553547 0.561277 0.569007 0.576738 0.584469
0 0.00127992 0.00256047 0.00384229 0.00512558 0.00641036 0.00831679 0.0102257 0.0121374 0.0140556
0.0159859 0.0169579 0.017933 0.0189114 0.0198933 0.0208787 0.0218729 0.0228761 0.0238891 0.0249121
0.0259472 0.0263887 0.0268318 0.0272782 0.0277281 0.027852 0.0280018 0.0281518 0.0283019 0.0284521
0.0286026 0.029146 0.0296936 0.0302485 0.0308122 0.0313967 0.0314718 0.0315469 0.0316219 0.031697
0.0317621 0.0319794 0.0321965 0.0324135 0.0326304 0.0328507 0.0329302 0.0330097 0.033089 0.0331682
0.0332368 0.0334481 0.0336586 0.033868 0.0340741 0.0342866 0.0343491 0.0344112 0.0344729 0.0345342
0.0345872 0.0345921 0.034597 0.0346019 0.0346069 0.0346117 0.0348273 0.0350383 0.0352449 0.035444
0.0356347 0.0356561 0.0356775 0.0356989 0.0357202 0.035742 0.0358442 0.0359455 0.0360458 0.0361473
0.0362923 0.0363859 0.0364787 0.036571 0.0366623 0.0367513 0.0368549 0.0369577 0.0370601 0.0371627
0.0373103 0.0374097 0.037509 0.0376082 0.0377082 0.0378059 0.0380177 0.0382277 0.0384371 0.0386459
0.038858 0.0390779 0.0392934 0.0395045 0.0397157 0.0399296 0.0401457 0.0403601 0.0405736 0.0407876
0.0410041 0.0412251 0.0414427 0.0416589 0.0418755 0.042093 0.0423118 0.0425291 0.0427463 0.0429639
0.0431827 0.0436278 0.0440732 0.0445218 0.0449738 0.0454339 0.0459125 0.0463792 0.046838 0.0472998
0.0477752 0.048258 0.0487389 0.0492198 0.0497045 0.0501972 0.0512139 0.0522363 0.053271 0.0543591
0.0554641 0.0558208 0.0561777 0.0565358 0.0568953 0.0572747 0.0580736 0.0588721 0.05967 0.0604716
0.0612813 0.0624807 0.0636562 0.0648386 0.0660359 0.067228 0.0684544 0.0696568 0.0708364 0.0720099
0.0731755 0.073607 0.0740379 0.0744691 0.0749007 0.0753247 0.0756717 0.076019 0.0763665 0.0767141
0.0770719 0.0774651 0.0778586 0.0782524 0.0786465 0.0790406 0.0813851 0.0837317 0.0860778 0.0883936
0.0906814 0.0951887 0.0997484 0.104217 0.108542 0.11276 0.121069 0.129348 0.137566 0.145611
0.153488 0.161229 0.16897 0.176708 0.184442 0.192173 0.199901 0.207628 0.215354 0.223078
0.2308 0.237577 0.244354 0.251129 0.257904 0.26469 0.26563 0.266569 0.267508 0.268448
0.269387 0.2771 0.284815 0.292529 0.300244 0.307959 0.315665 0.32338 0.331094 0.338808
0.346523 0.354223 0.361937 0.369651 0.377365 0.385079 0.392774 0.400487 0.408201 0.415914
0.423628 0.431317 0.43903 0.446742 0.454455 0.462168 0.469852 0.477564 0.485275 0.492987
0.500699 0.508379 0.516089 0.5238 0.53151 0.539221 0.546895 0.554604 0.562313 0.570022
0.577731 0 0.00127753 0.00255576 0.00383511 0.00511574 0.00639766 0.00829922 0.0102027 0.0121091
0.0140203 0.0159396 0.0169037 0.0178697 0.0188377 0.0198079 0.0207804 0.0217541 0.0227329 0.0237169
0.0247055 0.0256979 0.0266886 0.0276857 0.028691 0.0296915 0.0306999 0.030775 0.0308501 0.0309251
0.031 0.0310692 0.0319916 0.0328945 0.0337768 0.034638 0.0354966 0.0359445 0.03639 0.0368336
0.037276 0.0377131 0.0381516 0.0385876 0.0390227 0.0394572 0.0398859 0.0403189 0.040752 0.0411855
0.0416193 0.0420536 0.0424898 0.0429248 0.0433607 0.0437976 0.0442363 0.0451143 0.0460009 0.0468942
0.047795 0.0487208 0.0496679 0.0506076 0.0515408 0.0524809 0.0534303 0.0541525 0.0548799 0.0556095
0.0563408 0.0574583 0.0576237 0.0577892 0.0579548 0.0581205 0.0582863 0.05927 0.0602532 0.0612366
0.0622198 0.063202 0.065202 0.0671889 0.0691652 0.0711509 0.0731341 0.0750924 0.0770769 0.0790762
0.0810794 0.0830844 0.0870956 0.0911239 0.0951207 0.0990727 0.103019 0.105874 0.108733 0.111601
0.114462 0.117826 0.122792 0.12773 0.132641 0.137526 0.142384 0.150094 0.157806 0.165516
0.173224 0.180929 0.188623 0.196323 0.204022 0.21172 0.219417 0.227103 0.234796 0.242489
0.25018 0.25787 0.265552 0.27324 0.280926 0.288612 0.296297 0.303976 0.311659 0.319341
0.327022 0.334702 0.342378 0.350056 0.357734 0.365411 0.373087 0.380759 0.388434 0.396107
0.40378 0.411452 0.419122 0.426792 0.434462 0.442131 0.4498 0.457466 0.465133 0.4728
0.480465 0.488131 0.495794 0.503458 0.511121 0.518783 0.526445 0.534105 0.541765 0.549425
0.557084 0.564743 0 0.00127409 0.00254879 0.00382395 0.00510033 0.00637794 0.00827383 0.0101718
0.0120722 0.0139755 0.0158829 0.0177922 0.0197067 0.0216261 0.0235502 0.0254822 0.0264531 0.0274209
0.0283838 0.0293418 0.02996 0.0309782 0.0319888 0.0329888 0.0339787 0.0349569 0.0358657 0.0367713
0.0376727 0.0385712 0.0394607 0.0403513 0.0412404 0.0421283 0.0430153 0.0439016 0.0456787 0.0474732
0.0492822 0.0511009 0.052936 0.053792 0.0546492 0.0555085 0.0563699 0.0577001 0.0585996 0.0595009
0.0604041 0.0613091 0.0622156 0.0640913 0.0659698 0.067851 0.0697348 0.0716207 0.0735161 0.0754037
0.0772923 0.0791824 0.0810734 0.0848693 0.0886643 0.0924637 0.0962677 0.100086 0.107784 0.115485
0.123141 0.13076 0.138395 0.146043 0.153689 0.161334 0.168977 0.176619 0.184265 0.191907
0.199548 0.207188 0.214826 0.222467 0.230105 0.237742 0.245378 0.253013 0.260652 0.268287
0.275922 0.283555 0.291188 0.298824 0.306457 0.314089 0.321721 0.329351 0.336985 0.344615
0.352246 0.359875 0.367503 0.375134 0.382763 0.390391 0.398018 0.405645 0.413274 0.420901
0.428527 0.436152 0.443777 0.451403 0.459028 0.466652 0.474276 0.481898 0.489523 0.497146
0.504768 0.51239 0.52001 0.527633 0.535253 0.542874 0.550493 0.558113 0 0.00127141
0.0025432 0.00381553 0.00508844 0.00636196 0.0101413 0.0139323 0.0177223 0.021509 0.0252995 0.0257904
0.0262801 0.0267689 0.0272568 0.0276865 0.0290759 0.0304602 0.0318392 0.0332132 0.0345846 0.0364257
0.0382572 0.040072 0.0418826 0.0436882 0.0454994 0.047308 0.049118 0.0509367 0.0527668 0.0546031
0.0564409 0.0582814 0.0601249 0.0619709 0.0656732 0.0693894 0.0731214 0.0768684 0.080619 0.0843894
0.0881579 0.0919266 0.0956974 0.0994706 0.107 0.114528 0.122061 0.129609 0.137173 0.144751
0.152326 0.159903 0.167481 0.175057 0.182638 0.190215 0.197792 0.205369 0.212945 0.220524