# vtk DataFile Version 2.0
sampleSurface
ASCII
DATASET POLYDATA
POINTS 2021 float
-0.500032 0 0.11501 -0.499951 3.38813e-21 0.0392727 -0.789037 8.47033e-21 0.120673 -0.500013 -1.35525e-20
0.193965 1.00003 0 0.0485099 1.00003 0 0.0478584 0.475202 0 0.0353615
0.250044 1.41878e-20 0.0305359 0.2506 -5.42101e-20 0.117067 0.251301 0 0.203885 0.364989
0 0.203772 1.75002 0 0.113255 1.75002 0 0.0564279 2.50001 6.89146e-18
0.059229 2.21354 0 0.250758 2.50001 0 0.252875 3.25001 -3.47927e-17 0.0598775
3.25001 -1.69407e-21 0.253888 4.00001 5.60566e-18 0.0599857 4 0 0.253986 4.75
-1.79088e-17 0.0599988 4.75 8.47033e-22 0.253998 5.5 -2.79246e-17 0.0599999 5.5 -4.23516e-22
0.253999 6.25 1.01187e-17 0.06 6.25 0 0.254 7 2.93732e-17 0.06
7 0 0.254 7.75 -2.65294e-17 0.06 7.75 0 0.254 8.5
1.8923e-17 0.06 8.5 0 0.254 9.25 -2.88552e-17 0.06 9.25 -5.29396e-23
0.254 10 -2.64698e-23 0.254 10 0 0.06 -4.24997 0 0.0599042
-5 0 0.0599861 -5 0 0.253986 -4.24997 0 0.253912 -3.49995
0 0.0593815 -3.49994 0 0.253441 -2.74993 0 0.0570188 -2.74991 0
0.251316 -1.99991 0 0.0492276 -1.99987 0 0.242776 -1.24992 -1.69407e-21 0.03
-1.24985 1.23328e-17 0.222327 -1.24989 3.38813e-21 0.125756 -0.874924 2.08116e-17 0.03 -0.874929
0 0.122356 -0.124951 -8.47033e-22 0.03 -0.499941 0 0.03 -0.124922 -8.47033e-22
0.0385291 1.00021 0 0.231242 0.625368 0 0.203537 0.25004 -2.11758e-22 0.03
1.75003 0 0.247334 1.92873 1.69407e-21 0.441438 2.50001 0 0.447397 3.25
-1.69407e-21 0.447898 4 0 0.447986 4.75 0 0.447997 5.5 -4.23516e-22
0.447999 6.25 4.23516e-22 0.447999 7 0 0.448 7.75 -1.05879e-22 0.448
8.5 0 0.448 9.25 0 0.448 10 -2.64698e-23 0.448 -5
-8.47033e-22 0.447985 -4.24997 0 0.447919 -3.49993 0 0.4475 -2.74988 0
0.445609 -1.9998 6.77626e-21 0.437758 -1.24969 1.61411e-17 0.417681 -1.24976 -6.77626e-21 0.31973
-0.875161 7.70461e-18 0.216228 -0.875403 0 0.312476 -0.499924 -8.74138e-19 0.250039 -0.312433
0 0.250037 -0.312436 0 0.200025 -0.499924 0 0.200026 0.250062 3.38813e-21
0.24921 0.250039 -1.69407e-21 0.250046 0.250032 0 0.300069 0.437526 3.05948e-18 0.300066
0.625026 0 0.30005 1.00072 -8.23994e-18 0.326497 1.00196 0 0.423 1.75013
0 0.439575 1.75013 1.77877e-20 0.448245 1.00135 0 0.537141 1.00002 0
0.61834 1.74999 2.71051e-20 0.633055 2.49999 -3.38813e-21 0.641448 3.25 0 0.641907
4 -1.69407e-21 0.641985 4.75 -8.47033e-22 0.641996 5.5 -4.23516e-22 0.641998 6.25
0 0.641999 7 0 0.641999 7.75 0 0.642 8.5 5.29396e-23
0.642 9.25 -5.29396e-23 0.642 10 0 0.642 -5 0 0.641985
-4.24997 -1.69407e-21 0.641926 -3.49993 0 0.641557 -2.74988 0 0.639897 -1.99989
6.77626e-21 0.63382 -1.25099 2.55465e-18 0.614606 -1.25 -2.71051e-20 0.515981 -0.878244 0
0.50789 -0.875961 2.71051e-20 0.459694 -0.875609 0 0.410432 -0.498432 0 0.400603
-0.498071 -1.70762e-18 0.413126 -0.450805 0 0.413349 -0.45095 0 0.400955 0.250009
1.89735e-19 0.412703 0.25 2.71051e-20 0.425212 0.296872 1.00289e-18 0.425187 0.343754 -2.71051e-20
0.425153 0.343763 0 0.400146 0.250006 0 0.400175 1.00162 1.41488e-17 0.520353
-2 4.23516e-22 0.820145 -2.09502 -2.11758e-22 0.830091 -2 0 0.829497 -1.25123
0 0.813251 -1.25126 0 0.713737 -1.25101 6.77626e-21 0.62198 1.00059 0
0.714169 1.00094 0 0.809205 1.75018 0 0.82775 2.5 0 0.835521
3.25 0 0.835917 4 -1.69407e-21 0.835986 4.75 -8.47033e-22 0.835996 5.5
0 0.835998 6.25 0 0.835999 7 0 0.835999 7.75 0
0.836 8.5 0 0.836 9.25 0 0.836 10 0 0.836
-5 -8.47033e-22 0.835986 -4.24997 0 0.835935 -3.49995 0 0.835616 -2.74991
0 0.83419 -0.970118 0 0.703382 -0.87455 0 0.699864 -0.874264 -2.71051e-20
0.649852 -0.874033 -2.71051e-20 0.599873 -0.49698 0 0.599585 -0.497345 -9.21572e-19 0.612046
-0.450014 0 0.611892 -0.44938 2.71051e-20 0.599454 -2.00002 0 0.84097 -1.84639
-3.38813e-21 1.02215 -1.25185 0 1.01276 -0.896512 -3.38813e-21 0.900668 -0.908183 6.77626e-21
0.801076 -0.904022 -1.86347e-20 1.00093 0.624925 0 0.799916 0.249931 0 0.799891
0.249978 0 0.899916 0.249997 0 0.999939 0.999987 0 0.999957 1.75061
-2.1684e-19 1.02409 2.50003 0 1.0296 3.25 -1.69407e-21 1.02993 4 0
1.02999 4.75 0 1.03 5.5 0 1.03 6.25 2.11758e-22 1.03
7 0 1.03 7.75 0 1.03 8.5 5.29396e-23 1.03 9.25
0 1.03 10 0 1.03 -5 0 1.02999 -4.24998 0
1.02994 -3.49996 -8.47033e-22 1.02968 -2.74996 0 1.02849 -2.00026 0 1.02458
-0.87482 0 0.799893 -0.87491 0 0.899919 -0.49993 0 0.799862 -0.499958
7.6233e-19 0.849889 -0.312476 0 0.849885 -0.312472 0 0.799853 -1.25001 8.04681e-21
1.19601 -0.499979 5.29396e-23 1.10737 -0.731886 2.11758e-22 1.19997 -0.499981 0 1.19997
-0.124987 0 0.999933 -0.477759 -5.29396e-23 0.999933 -0.487556 -1.45584e-22 1.09995 0.250008
0 1.19997 1 0 1.19997 1.7507 0 1.22203 2.50003 -1.35525e-20
1.22368 3.25 0 1.22394 4 0 1.22399 4.75 4.23516e-22 1.224
5.5 0 1.224 6.25 2.11758e-22 1.224 7 0 1.224 7.75
1.05879e-22 1.224 8.5 0 1.224 9.25 0 1.224 10 2.64698e-23
1.224 -5 4.23516e-22 1.22399 -4.24999 -4.23516e-22 1.22395 -3.49998 0 1.22374
-2.75001 0 1.22279 -2.00077 0 1.21965 -1.24997 4.23516e-22 1.19997 -0.499969
-5.29396e-23 0.999933 -0.874942 0 0.999936 -0.499979 -1.32349e-23 1.09995 -2.75001 0
1.36967 -3.18711 4.23516e-22 1.41751 -2.75001 4.23516e-22 1.4171 -2.00072 3.38813e-21 1.29692
-2.00065 0 1.41474 -1.25823 6.35275e-21 1.40014 -0.980416 0 1.39998 -0.499986
0 1.39998 0.250009 0 1.39998 1 0 1.39998 1.75054 0
1.41682 2.50002 -1.35525e-20 1.41776 3.25 0 1.41796 4 4.23516e-22 1.41799
4.75 0 1.418 5.5 0 1.418 6.25 0 1.418 7
0 1.418 7.75 0 1.418 8.5 0 1.418 9.25 0
1.418 10 0 1.418 -5 0 1.41799 -4.24999 0 1.41797
-3.49999 -4.23516e-22 1.41781 -1.24998 0 1.39998 -2.80392 1.32349e-23 1.61143 -2.75
-1.32349e-23 1.6114 -2.0003 0 1.60983 -1.25396 2.64698e-23 1.60004 -1.12789 2.64698e-23
1.59999 -0.49999 1.05879e-22 1.59999 0.250008 0 1.59999 1.00001 4.23516e-22 1.59999
1.75038 0 1.61122 2.50002 0 1.61184 3.25 -4.23516e-22 1.61197 4
-4.23516e-22 1.61199 4.75 0 1.612 5.5 0 1.612 6.25 0
1.612 7 0 1.612 7.75 5.29396e-23 1.612 8.5 2.64698e-23 1.612
9.25 -1.32349e-23 1.612 10 -1.32349e-23 1.612 -5 0 1.61199 -4.24999
0 1.61198 -3.49999 0 1.61187 -1.24999 0 1.59999 -2.75 -1.32349e-23
1.63714 -2.64195 -2.11758e-22 1.80559 -2.00012 -8.47033e-22 1.80492 -1.25741 0 1.80004
-1.19082 -7.94093e-23 1.8 -0.499992 1.05879e-22 1.79999 0.250006 2.11758e-22 1.79999 1
0 1.8 1.75023 0 1.80561 2.50001 3.38813e-21 1.80592 3.25 0
1.80599 4 0 1.806 4.75 2.11758e-22 1.806 5.5 0 1.806
6.25 0 1.806 7 0 1.806 7.75 0 1.806 8.5
2.64698e-23 1.806 9.25 0 1.806 10 0 1.806 -5 0
1.806 -4.25 -2.11758e-22 1.80599 -3.49999 0 1.80594 -2.75 -1.05879e-22 1.8057
-1.24999 0 1.8 -2 -4.76456e-22 1.98532 -1.20969 -1.65436e-23 2 -0.499993
0 2 0.250006 0 2 1 0 2 1.75 0
2 2.5 0 2 3.25 0 2 4 0 2
4.75 -1.05879e-22 2 5.5 0 2 6.25 0 2 7
5.29396e-23 2 7.75 0 2 8.5 0 2 9.25 0
2 10 -1.32349e-23 2 -5 2.21817e-18 2 -4.25 1.05879e-22 2
-3.49999 0 2 -2.74999 0 2 -1.99999 -5.29396e-23 2 -1.24999
3.30872e-24 2 0.0956945 -5.42101e-20 0.203879 0.0632748 0 0.203876 0.0625511 0
0.250042 -0.403589 6.77626e-21 0.40138 -0.405779 7.7927e-19 0.38799 -0.406379 -6.77626e-21 0.375196
-0.499567 -1.35525e-20 0.375265 0.250006 -6.50521e-19 0.375144 0.156247 0 0.375155 0.156237
9.41901e-19 0.400212 0.203129 0 0.400201 0.249796 0 0.59991 0.249852 -1.0842e-19
0.587433 0.202953 0 0.587417 0.202888 6.50521e-19 0.599901 0.625121 -6.77626e-21 0.499953
0.717439 6.77626e-21 0.504955 0.625095 6.77626e-21 0.475379 0.343596 1.0842e-19 0.599918 0.343639
0 0.574939 0.296781 0 0.574964 0.249926 0 0.574977 0.62499 -4.2826e-18
0.549927 0.624917 4.55365e-18 0.599925 0.203133 0 0.412725 -0.449046 0 0.587135
-0.496581 5.42101e-20 0.587161 0.625036 -9.32414e-18 0.40006 0.625067 1.13164e-18 0.450032 0.249704
0 0.624881 0.155871 0 0.599866 0.155839 1.95156e-18 0.624853 0.249886 1.35525e-20
0.749873 0.062411 0 0.749846 0.0624478 -4.26227e-18 0.799869 -0.312472 0 0.749804
-0.499901 -3.38813e-21 0.749824 -0.691227 0 0.30453 -0.499912 3.02221e-18 0.300065 -0.875784
-3.11708e-18 0.361353 -0.592465 -2.71051e-20 0.40036 -0.499854 0 0.350135 -0.687111 1.35525e-20
0.350117 -0.68656 -2.71051e-20 0.40021 0.437526 -1.35525e-20 0.400108 0.437522 6.77626e-21 0.350086
0.250015 -2.51399e-18 0.35011 0.625027 3.38813e-21 0.350064 -0.592287 0 0.425286 -0.498048
0 0.425444 -0.873902 5.42101e-18 0.54992 -0.496663 0 0.574746 -0.591532 0
0.574798 -0.591729 0 0.599734 -0.149108 0 0.406489 -0.149477 -5.29396e-23 0.403592
-0.149678 0 0.406489 -0.451876 -2.1684e-18 0.499977 -0.451579 0 0.487563 -0.498366
0 0.487552 -0.498515 -1.0842e-19 0.499993 0.437553 0 0.450075 0.437532 -6.07153e-18
0.425113 0.254621 -1.25361e-19 0.496697 0.26485 -5.42101e-20 0.498023 0.264831 0 0.496529
0.254636 -2.30393e-19 0.49668 0.570241 0 0.499932 0.437665 -2.71051e-20 0.474991 0.437859
-2.71051e-20 0.49988 0.437372 -1.0842e-19 0.599915 0.249722 3.25261e-19 0.649874 0.43732 -5.42101e-20
0.649899 0.624872 0 0.649914 0.624883 -3.95734e-18 0.699913 0.43734 6.83047e-18 0.699894
0.249817 0 0.699869 -0.592227 0 0.624743 -0.498071 -2.71051e-20 0.624658 -0.499769
6.77626e-21 0.69979 -0.687025 0 0.699824 -0.150854 -1.03677e-18 0.599678 -0.151059 -6.77626e-21
0.605522 -0.127339 6.77626e-21 0.605681 -0.127867 0 0.599582 -0.406139 -4.40457e-20 0.699754
-0.406113 0 0.674749 -0.499634 0 0.674774 -0.18433 -4.23516e-22 0.674527 -0.163626
-4.23516e-22 0.678958 -0.165125 0 0.674537 -0.171868 4.23516e-22 0.674524 -0.14924 3.34737e-19
0.400169 -0.125737 0 0.400165 -0.12551 0 0.393854 -0.149076 -2.11758e-22 0.393877
-0.499925 -2.61564e-18 0.325088 -0.406241 0 0.325087 -0.4062 0 0.300069 -0.124901
0 0.300062 -0.218633 -3.27294e-18 0.299673 -0.218596 1.35525e-20 0.324664 -0.124851 0
0.325085 -0.126061 7.86047e-19 0.406473 -0.0785222 1.30782e-18 0.400166 -0.126118 3.38813e-21 0.41275
-0.0785648 0 0.412729 0.240678 1.0842e-18 0.500153 0.252614 -2.1684e-19 0.498317 0.252386
1.0842e-19 0.496231 0.241035 0 0.496114 0.228892 -1.35525e-20 0.496204 0.228835 6.77626e-21
0.498715 0.229819 2.71051e-20 0.500074 0.25248 0 0.499935 0.240657 -1.6263e-19 0.500957
0.264863 0 0.500154 0.264689 0 0.500951 0.437443 0 0.549896 0.437406
[...]
POINT_DATA 2021
FIELD attributes 2
p 1 2021 float
2.01514 1.44309 2.37396 4.36912 0.057084 0.0549703 -4.20634 -6.04475 -7.69367 -6.1696 -4.32486
0.495367 0.463254 0.111179 0.325784 0.174151 0.00296 0.0265412 0.00538566 0.0140824 0.00977874
0.0155565 0.00503789 0.0100045 0.000250187 0.00452138 -0.00149084 0.0022201 -0.00126552 0.0019937 -0.000689347
0.00201644 0.000376571 0.00327068 0 0 0.615984 0.611527 0.611376 0.615699 0.636889
0.635994 0.70692 0.703786 0.929151 0.925854 1.64391 1.76552 1.78095 2.2396 2.48041
-4.05428 1.37299 -4.10705 0.649026 -0.113607 -6.03452 0.57111 0.441444 0.18889 0.0283098
0.0066234 0.0090587 0.00534483 0.000804088 -0.000861896 -0.000487499 -0.000551793 0.00259946 0 0.610944
0.614931 0.63358 0.694747 0.904725 1.95943 2.03232 3.13204 3.87682 7.33161 -3.28977
-1.044 4.58918 -5.73631 -5.72849 -2.27159 0.335051 0.824401 1.02915 0.924943 0.520391
0.516205 0.844899 0.878408 0.426851 0.16657 0.0221908 0.00167807 0.00612644 0.00409242 0.000184673
-0.00121678 -0.000651384 -0.000436535 0.00277084 0 0.610254 0.613741 0.629943 0.68205 0.864246
1.85312 2.13917 5.13873 5.59308 4.83032 32.583 36.4681 52.0382 45.9944 4.75736
4.90996 3.39515 3.42987 2.68678 4.07982 0.837969 0.81015 0.789661 0.807434 1.39914
1.78841 1.84833 0.991134 0.481137 0.349063 0.127058 0.0130144 0.000179073 0.00688804 0.00616909
0.00256018 0.00106839 0.00135415 0.00195707 0.00344141 0 0.609378 0.612261 0.625508 0.667161
3.25544 3.75414 4.68664 4.76462 34.3661 32.7039 44.6275 50.7696 0.803599 0.783286
0.941901 1.70527 2.63018 1.14432 0.0780607 -4.88499 -5.30363 -2.74928 -0.229529 0.190256
0.0727152 -0.00591759 -0.0110271 -0.000852037 0.00102382 -0.00113349 -0.00178336 -0.000954494 0.000167487 0.00118771
0 0.608409 0.610638 0.620679 0.651168 0.742213 2.74981 1.73506 5.1919 3.29566
0.561801 -0.671407 0.699744 0.31285 0.314435 0.144307 -1.70896 0.675393 0.283349 -0.974104
-0.394617 0.0972143 0.0643071 -0.00325506 -0.0109939 -0.000951564 0.00158072 -0.00033558 -0.000974799 -0.000170294
0.000903262 0.00146378 0 0.607445 0.609028 0.615829 0.63503 0.678679 0.694504 0.825514
1.16124 0.32636 0.623793 0.615059 0.620165 0.658405 0.627485 0.568402 0.385547 0.0608256
-0.564252 -0.378272 0.0455579 0.0588481 -0.00465996 -0.0152436 -0.00432957 -0.000682601 -0.00209196 -0.00246054
-0.00146572 -0.000260483 0.000374792 0 0.606582 0.607573 0.611405 0.567745 0.608382 0.608422
0.592376 0.497192 0.428591 0.0784234 -0.435186 -0.349295 -0.00154157 0.0476445 -0.00818143 -0.0188828
-0.0064265 -0.00168901 -0.0026855 -0.00285234 -0.00174558 -0.000473383 0.00022181 0 0.605904 0.606401
0.60786 0.496685 0.607442 0.596851 0.57204 0.459509 0.42914 0.0877153 -0.364906 -0.333295
-0.0280183 0.0425724 -0.00855762 -0.0199593 -0.00718957 -0.00211497 -0.00300561 -0.00309682 -0.00193766 -0.000642521
8.89953e-05 0 0.605466 0.605619 0.605517 0.601028 0.458385 0.565764 0.426988 0.090793
-0.342531 -0.328123 -0.0363026 0.0410482 -0.00864279 -0.0203746 -0.00755329 -0.00234867 -0.00316607 -0.00319113
-0.00198775 -0.000675033 7.37945e-05 6.97138e-05 0.605313 0.605338 0.604674 0.598507 0.565254 0.446079
-10.2898 -11.1477 -11.8016 70.4886 60.0751 43.8916 29.6822 2.91197 1.67446 4.37969
5.05035 4.14411 4.5621 6.19001 5.40261 2.02256 1.73196 2.138 2.96403 3.6735
3.36714 3.97434 2.24397 1.90987 6.04205 56.2589 39.4539 1.93209 2.25674 3.64344
4.74159 2.17024 -4.53348 -11.2191 -9.85267 -3.18828 8.46814 7.00927 11.9119 4.75391
17.4708 20.8288 9.14243 10.523 2.57839 1.49499 0.983509 1.65278 19.7379 36.925
5.61698 39.6543 20.3372 18.8273 -58.7621 -58.5353 -58.7582 68.4738 68.3864 47.573
44.8072 3.40345 3.10761 -5.01575 0.34098 0.191752 -5.06532 2.58419 3.97149 3.93523
2.85848 1.83372 1.75646 1.62337 0.946534 0.75707 -1.36291 17.0127 28.1124 13.3004
7.28169 -56.7261 -56.4966 -58.9811 -58.9116 13.8805 19.1162 18.4892 -46.2984 -42.7451
-44.4254 -45.1594 -58.2719 -57.5894 -57.5592 -57.672 16.6211 15.8949 12.0149 -29.3778
-27.9641 -45.3699 -37.0938 -58.9186 -46.0955 -58.7796 -48.2531 10.989 4.28661 10.5007
11.8457 9.08376 9.35862 9.64621 4.50967 11.1112 0.896879 0.727791 3.71851 3.47337
4.05951 4.31683 47.766 68.3563 -59.0424 -56.6696 6.5002 11.1177 -51.538 -52.8171
-58.6391 4.46121 6.28944 6.44 6.47729 -31.4439 -40.0608 -49.4464 -29.7977 64.4195
60.8043 41.6675 41.4165 -44.1411 -56.0836 -11.5437 -8.61378 -0.463279 -24.5857 -42.499
42.9943 44.3208 64.3183 66.4899 -51.9067 -50.0512 -50.8254 0.327655 -9.65913 -12.725
-11.7106 -21.7099 -24.8999 -58.0282 44.0514 21.8607 22.1547 11.7086 12.0255 12.1989
13.1502 22.0316 44.516 10.8035 12.4669 11.9072 13.2475 -58.7881 -58.7836 -58.2943
-58.2814 -57.5815 -56.9629 -56.5975 45.8308 66.8419 -58.4481 -58.7494 -59.1421 -58.3565
-29.8876 -35.1436 -32.8649 -13.7853 -1.6328 -4.95461 -50.7817 -50.4371 -58.1757 -13.1699
0.124327 0.0286553 -13.4113 -58.4578 -57.006 -51.4614 -12.5028 -10.2155 -3.70147 1.56137
-7.31856 -5.53584 -18.5096 -38.2635 -41.4292 -36.3313 -52.2208 -53.2744 -52.9864 -4.01551
-17.3722 -18.1366 -4.6568 -56.196 -51.9894 -56.2092 -3.44155 -9.13306 -16.4202 -11.6439
67.5426 46.8801 -54.4371 -54.6091 -56.9926 -56.8604 -56.3867 -53.9088 -57.2779 -53.179
-56.1391 -59.039 -59.1487 -59.1973 -32.2029 -77.1434 -96.19 -101.194 -103.622 -103.193
-48.8398 -50.2228 -54.2466 -48.2856 -49.9774 -98.1462 -99.423 -71.2965 -34.3324 -58.5843
-59.3608 -59.0042 -56.4102 -57.3069 -57.3532 -57.2751 -57.6929 7.12344 6.05345 8.94138
-56.201 -55.8731 -56.0981 -55.5922 -55.7148 -56.0125 -56.4134 -55.2925 -55.2778 2.00318
1.80486 0.679874 1.17218 4.26266 4.63394 1.42075 -56.0189 -56.467 -57.1091 5.78906
6.61317 2.75997 0.860755 3.12935 -32.1382 -38.188 -37.4293 -31.7331 -54.7821 -55.2644
-58.1644 -57.8409 -55.1387 -55.9639 -38.8249 -43.2021 -43.0162 -36.8387 -46.1486 -50.2031
-53.3864 -53.5284 -52.314 123.577 131.433 146.78 146.868 -58.2874 -56.2527 -56.5567
-57.987 -57.7868 4.46149 2.18416 3.08965 4.68228 -9.60638 -3.81656 -5.73976 -8.74821
-11.6257 -38.9087 -36.7696 -25.4407 -27.1161 -31.9292 -38.9206 -24.8637 -24.9092 31.0908
41.2599 52.1092 37.9329 23.0784 19.1648 34.2075 26.1062 0.672469 0.830771 1.98974
34.0826 24.9099 17.0804 22.1365 2.87043 3.79599 4.44811 4.56403 3.72293 6.65964
6.78414 4.63557 -9.35771 -8.24249 -1.37463 -10.2345 14.6933 9.1525 10.8283 -54.7598
-57.0415 -57.1733 -54.9578 -82.6811 -81.4058 -84.6351 -47.9527 -12.703 -18.3347 -27.642
-56.0325 -52.8703 -55.3676 -56.4366 -74.0028 -73.7159 -58.3605 -59.6425 -49.7132 -48.0096
-50.3226 -50.4219 3.7503 3.81042 -0.628912 5.98799 5.64402 4.66044 5.32896 5.72558
6.13094 -54.2467 -53.756 -68.8283 -68.0533 79.0127 94.1058 85.7044 112.112 106.422
88.847 90.1624 161.849 164.179 153.359 121.634 98.4164 104.356 97.3113 117.646
-12.9347 -27.0072 -31.3299 -5.89529 -26.1878 -52.1154 -41.8051 -6.36557 93.7122 101.214
86.8021 78.2693 96.7038 88.3972 107.603 148.458 158.213 167.404 165.142 106.632
102.907 159.628 -32.6249 -7.95186 -38.3092 -28.5469 -47.8112 140.212 140.081 115.607
110.588 110.249 115.512 139.605 138.988 108.138 167.23 170.834 172.006 172.296
173.71 186.646 186.835 174.816 173.268 -33.1063 -40.2503 -33.0586 -56.6143 -50.99
-42.785 -42.0128 -40.7493 -25.6598 2.77954 -2.58494 -0.628482 173.389 175.332 187.187
172.361 186.503 187.147 175.22 172.167 179.594 181.757 170.109 168.877 179.893
167.878 171.094 182.417 -52.6328 -37.7035 -36.4455 -55.8832 -55.8915 -56.0004 -36.2463
-46.1562 -36.3547 -36.8273 -45.783 -45.7507 -3.27411 -9.11101 -24.9574 -25.0079 -33.0354
-43.6995 -33.0394 -32.7168 -43.0988 -21.244 -18.9038 -20.6668 115.425 140.142 138.127
139.037 114.682 109.311 170.034 169.909 170.477 167.741 136.401 108.401 113.578
137.152 -57.3607 -54.4536 -53.0171 -52.8526 -55.8755 -46.0862 90.1306 93.3851 78.6079
-15.121 -6.3902 -6.89602 -21.0308 54.4613 56.3187 69.9445 73.615 -55.8629 -55.1011
-55.4108 -55.8666 -57.0641 -57.3113 -57.4544 -57.5555 -56.2711 -56.3729 -55.9745 -56.0757
-135.471 -109.663 -78.159 -95.7407 -98.1081 -99.1951 -99.1872 -83.2646 -78.918 -92.4768
-70.6091 -85.5587 -133.093 -136.608 -128.486 -96.1442 -96.932 -54.8898 -54.3499 -55.0625
-56.1596 -56.4579 -53.9704 -53.9011 6.8067 7.34494 13.7441 16.3685 13.8338 -51.0713
-50.3381 -45.8471 -46.0838 -46.2031 -45.996 -45.9677 -45.7409 12.933 12.6685 16.8618
8.28965 8.09897 9.65172 10.1278 10.151 8.50972 7.33626 8.09844 12.4008 15.7148
13.7281 0.863341 -0.750834 -2.92059 7.04935 6.23893 5.12973 6.45848 7.15681 -52.5295
-53.4073 -56.4407 -55.7588 -48.6202 -49.593 13.634 15.6006 16.9983 -46.8823 -49.8517
-49.9774 -46.5919 -45.7219 11.3248 11.0661 11.1088 9.53755 6.84535 -6.969 -5.73056
5.49756 6.31407 6.28851 -48.4942 -48.8173 146.484 148.508 140.923 136.964 113.34
118.302 125.711 121.185 184.603 185.879 182.18 178.422 -55.7903 -55.724 -53.1003
-53.0078 169.638 183.357 185.055 172.995 174.451 186.57 171.03 182.142 169.626
179.277 -16.7457 -18.9893 -23.7301 -27.9178 -26.5414 -22.6538 -8.7068 -3.37999 -3.82238
-9.01315 -14.0399 -13.669 -1.02831 -9.06521 -9.93525 -15.0129 -18.1529 -8.20532 -8.96227
-24.9589 -20.2218 -9.66279 -0.77861 -3.05297 6.02865 -3.52664 6.01113 6.79434 3.36231
3.90041 4.62239 4.18517 7.69955 6.06516 3.94251 5.80224 -18.922 -15.9962 -26.3385
-21.4669 -56.4371 -58.1574 -58.7693 -58.6504 3.01721 3.08781 5.03158 5.51058 4.28087
4.87567 -14.5467 -40.2854 -57.247 -65.4671 -53.2468 -31.8914 -58.9644 10.7266 10.1833
10.2066 -2.41607 0.232731 11.9811 17.2298 9.50841 23.6937 20.5801 10.4277 1.70127
6.82169 8.31271 13.0885 11.5235 6.79468 -53.5154 -44.0918 -49.9586 -13.1007 -43.929
-25.0136 -60.6533 -83.7827 108.672 92.7205 106.196 108.352 112.738 111.87 172.883
172.007 173.258 172.574 171.276 185.961 185.962 185.197 -58.1058 -58.3241 174.484
-56.2527 -56.2502 -57.1522 -57.3164 -57.0256 -55.9934 -150.175 -137.12 -136.981 -133.668
-157.796 -136.864 -132.591 -132.915 -119.549 -115.09 -80.4772 -73.1577 -73.4458 -70.8585
-119.393 -121.091 -56.8041 -55.7946 -54.7087 -57.1692 9.50732 7.15053 10.6934 8.23387
11.0103 12.0374 12.4097 13.3776 14.1693 -55.4287 -54.4919 -56.4794 -55.3001 -53.3373
-53.0744 -53.1836 -55.1199 -5.94869 -0.461938 -1.42709 -4.58964 9.19278 9.56202 6.79651
5.83331 7.52697 9.53308 8.78004 6.67376 1.39069 8.18512 7.09717 6.92994 8.68272
10.4161 9.23356 12.0576 11.3432 -54.8628 -55.2884 -55.4486 -55.5799 -55.729 -55.5651
-55.0445 -53.1008 -54.4413 -54.4498 -54.4469 -51.2878 -52.6924 -73.879 -73.0638 -57.7416
-60.0843 -77.6442 -68.5177 -77.9239 -124.529 -129.207 -136.815 -79.6001 -97.6465 -107.672
-80.4455 -99.0176 128.752 113.589 148.52 151.745 -54.7066 -53.925 -55.0455 -55.022
-53.2227 143.894 167.877 146.153 -49.2523 -48.4212 -48.8736 -49.6418 -49.4702 -49.4865
-49.4144 -47.8901 -7.9035 -9.16991 -11.6893 -10.8174 -14.6811 -16.8294 -18.9491 -16.758
-17.6728 74.8061 85.4976 -58.7748 51.1742 76.5157 64.9946 75.5247 60.9836 13.7143
10.7387 45.4978 36.5124 8.36493 9.19885 3.62885 5.30062 5.11171 7.80855 6.71868
7.09065 7.47446 8.28746 -53.0479 -52.6026 -52.2806 -52.8608 -0.993564 -0.486794 -1.06359
2.29165 5.69709 5.14082 7.08217 6.51986 -51.1778 -51.6292 -51.3567 138.198 136.276
171.188 184.777 189.082 189.368 186.859 185.337 -55.8669 -55.5687 -55.8919 -55.6987
-53.2408 -45.6739 -46.5173 -47.1924 -46.3905 -46.7487 -48.0517 -56.0974 -56.1219 -56.7191
-57.4279 -57.1227 -57.1062 -57.2701 -56.8828 -55.2248 -116.145 -111.703 -135.192 -111.769
-134.1 -122.27 -123.728 -133.582 -56.1979 -57.5917 -56.0445 -54.704 13.7091 12.3339
11.3126 12.4903 12.7189 13.3679 -36.8659 -36.3517 -31.5243 -30.9762 -41.8579 -42.3945
-46.5773 -46.184 -51.2524 -51.3013 -45.6618 -52.3385 -51.9708 -6.13757 -0.917265 -11.3952
0.682889 2.11946 7.97977 7.50691 7.83192 4.2805 10.6749 7.31651 8.73622 10.2531
10.895 10.7791 10.92 12.685 12.3608 2.39573 12.4193 14.8146 15.9873 3.93181
3.44443 3.18779 3.86209 -59.0351 -58.1946 -52.8519 -56.6348 -44.5275 -44.0288 -39.9134
-44.359 -45.7494 -49.8504 -51.0475 -49.5216 -49.7182 -49.5029 -47.2149 -52.3493 -47.3368
4.22784 -48.2069 -49.4837 141 131.807 129.405 129.453 129.833 114.349 106.925
188.658 188.132 187.137 -50.7627 -51.0999 -1.30068 -0.731219 0.301456 -29.6621 -30.5848
186.055 186.891 180.369 183.328 181.874 181.504 -33 -28.816 -3.06533 -7.70769
-5.82922 -3.10518 -24.7409 -13.5696 -10.1513 -13.3547 -19.7961 -4.57981 80.8754 56.5252
60.8563 21.0751 21.4419 68.0223 110.71 10.1382 7.17945 -2.25293 -2.51412 6.82438
7.61466 7.90024 6.10482 6.55638 24.5359 16.2942 -0.438259 19.7457 -1.73877 3.50026
8.14434 8.06902 68.0279 110.214 -55.0008 -56.0523 18.1083 91.5103 108.989 100.361
92.3972 108.023 109.143 126.566 134.301 143.181 -55.9212 81.5366 73.5123 50.32
12.4493 18.4831 16.6586 -75.8321 -56.8857 -56.879 -56.8822 -55.284 -55.2034 -59.9229
-55.478 -59.9275 -60.4958 23.3776 -6.52952 5.93778 10.5464 10.7809 -1.38744 -1.49053
-2.6085 -55.8716 -54.4499 -1.04059 2.50749 2.8138 -57.6848 -57.126 -56.2421 7.97562
7.66726 4.15521 -56.7804 41.6203 49.5839 -66.8092 -59.016 17.3888 14.8826 8.98585
6.89208 5.0675 8.51391 6.9493 -54.3797 -54.3291 -53.1615 -53.1079 -55.9541 -52.393
-51.9281 -54.4276 -54.7377 -54.7273 -54.2115 -55.3074 -54.8769 -54.7393 -54.4764 4.49356
-51.918 -57.9706 -56.9649 100.528 129.151 144.717 155.179 168.094 162.927 160.738
148.742 188.24 -52.9058 -53.8368 -51.9541 -7.38846 -10.4255 -3.22671 -49.9538 -49.9656
-49.963 -50.2501 -53.3523 -47.3676 -49.0065 -47.7891 -47.2413 -47.9474 28.6843 20.1089
-112.668 -120.338 -120.214 -120.857 -121.204 -73.8862 -96.4925 -73.8894 13.3993 17.0276
-10.8741 12.0402 11.4893 -5.35016 -6.90171 4.14806 2.54578 1.05058 0.706603 -0.555975
-2.15287 -0.911551 4.18781 4.55814 0.660321 2.89058 4.53093 2.46553 1.38767 13.3333
17.6303 -50.2126 5.50336 12.7649 8.48317 16.4877 8.5109 11.1954 14.2104 15.9901
4.82934 5.01962 6.44898 5.87949 -2.0629 -3.97853 -6.22798 -6.12913 4.86266 1.69267
4.37947 9.41738 15.3144 16.5146 8.22072 5.66538 3.05802 2.74824 7.1634 10.629
11.288 11.9345 11.072 5.70437 -3.49702 5.57977 -2.74495 3.2378 -3.50592 2.46938
10.9919 8.3263 12.3653 6.95379 9.45541 11.3784 10.7705 10.4702 7.91031 8.61218
9.13313 9.38102 7.87486 7.35171 7.35835 5.99686 -5.47371 -8.96926 -7.18236 6.46409
5.86594 7.94473 6.23711 -9.16942 -10.9133 1.11361 7.05923 5.89267 -1.63121 5.67588
-137.312 -137.967 -138.118 10.2726 -55.7228 -54.6926 -54.7438 5.21194 9.89749 5.29224
8.39186 11.0131 -55.8817 -55.8521 -55.2246 -54.9163 -61.0987 -60.6213 -61.1118 -69.0838
-116.368 -120.35 -114.027 -121.067 -49.229 -49.7507 -47.6601 -47.3604 -47.6464 -47.3286
-14.4439 -14.4437 -16.8558 -52.861 -52.6731 -52.4224 5.14657 1.53889 4.99068 4.96733
-52.2146 -52.6575 -52.7932 141.758 151.11 -55.3584 -50.7515 13.3738 13.9472 11.573
7.16863 11.4785 18.7433 4.22449 3.34697 4.68739 3.68765 -53.4782 -57.23 -57.0386
-55.2746 7.74323 15.0608 11.1011 4.09797 4.24772 10.0804 8.82161 9.51021 8.62
10.3987 12.4179 10.2652 5.83921 8.55627 8.20854 -54.3735 -50.4052 -48.7333 91.1932
80.2167 84.1887 66.6991 72.6849 -4.7959 -2.92002 0.312315 -1.46793 7.6386 8.14533
7.69793 8.26524 8.02823 7.52777 7.07196 116.817 106.788 94.745 -73.8141 -57.2614
-55.9709 -54.8446 -54.671 -54.3038 -54.2716 163.484 139.769 161.893 162.003 7.70435
4.58426 10.671 11.3766 7.22375 8.55054 7.45307 6.91727 6.17489 2.76037 -2.3768
4.76921 5.40625 5.98742 4.37155 6.66988 14.4375 9.03517 -12.7475 15.6084 14.2869
7.64864 10.7512 15.9601 9.13673 -12.6554 -13.5681 -11.6558 -2.81387 -4.84164 -13.0899
7.23877 5.29196 -14.6694 -16.267 7.23903 4.88455 -0.976479 -3.83819 -55.3068 -46.0261
13.1226 1.9464 0.27457 -0.117187 5.98924 5.55179 6.48198 6.06461 6.0209 5.60749
0.330464 6.27375 6.9185 -0.401599 5.73621 4.76879 7.19157 6.68261 6.11285 106.172
86.6328 121.997 123.78 5.18715 4.9166 3.47505 -55.5346 5.11686 6.09983 5.87719
-9.55317 -12.5115 -0.211939 6.27333 6.75692 5.43331 8.11979 5.23068 6.94217 3.91589
37.0458 -53.43 -55.1422 -54.6554 -54.6073 -54.6773 -2.77629 -4.12995 -12.511 -12.38
-12.402 -3.37975 9.44028 3.16552 6.01756 7.09612 2.64764 2.43534 0.171557 -0.79205
-10.8616 -5.20108 -4.08844 -11.2236 -4.13202 -12.07 5.59754 -11.2944 -12.3379 -2.37831
1.23437 6.38375 6.39721 5.82166 8.87903 0.275314 6.67546 -3.07813 -1.06635 4.38173
-0.718864 7.23907 4.85579 -9.85987 9.01567 -0.612328 6.17198 1.07378 1.46129 4.84493
5.20029 4.28811 5.00765 3.18206 7.66623 8.9045 5.47132 6.07865 0.999824 3.47761
11.1059 5.58901 0.875375 -0.51879 3.65171 173.151 176.974 176.113 181.026 169.127
168.095 172.675 179.945 180.938 69.4801 73.6871 54.8338 -56.199 -41.5875 -38.701
-36.9575 -31.0129 -43.6907 -52.2085 -51.8647 -55.4742 -46.7223 100.758 154.464 162.106
155.248 146.974 -56.7262 -56.3197 -56.6568 -56.4277 -55.9176 -56.3878 -54.9622 -55.268
-55.107 4.03927 -0.252714 171.244 -18.3586 186.018 190.263 189.411 -51.4708 -47.4329
182.752 185.882 186.058 -16.2215 -51.4054 85.2494 -55.0057 -55.1402 -55.4067 -55.3703
-49.4091 189.384 -2.33952 189.503 185.525 189.097 7.37262 -64.2941 110.604 109.91
-55.9285 4.68955 -51.824 -53.1354 -51.942 -138.338 138.714 -54.8456 159.205 -52.0689
-121.285 -121.202 72.2232 6.96383 2.64851 168.08 164.693 -15.4156 139.853 191.107
190.003 185.404 189.453 190.791 189.787 172.8 191.163 186.784 189.957 191.197
0.616001 0.611533 0.636879 0.706051 0.920111 1.62447 2.21069 -3.98271 1.36 0.0223779
-4.10134 -5.8705 0.408217 0.0898014 -0.00201755 0.0051936 0.0105013 0.00587276 0.0010521 -0.000756339
-0.000601489 -8.6174e-05 0.000882109 0.000544694 -54.4405 -52.7129 -134.629 -135.19 -48.2399 -48.7114
-49.3888 -48.083 -48.5968 -49.319 -49.9876 -47.5782 -95.0517 -74.6658 -49.1029 -47.3955
-74.1053 -49.0287 -51.5335 -51.8848 -51.0059 -99.6722 -111.512 -130.103 -120.348 -120.166

U 3 2021 float
20.0061 -0.045969 -0.215784 20.0437 -0.0309299 -0.0740387 19.9289 -0.00655826 -0.0964684 19.9354 -0.0560321
-0.606375 20.0177 -0.0599088 0.0399676 20.018 -0.0598028 0.0399999 20.1683 -0.0788405 0.0575008
20.233 -0.08704 0.065527 20.2785 -0.0920645 0.149158 20.2915 -0.11713 0.263874 20.2104
-0.118431 0.208679 19.9544 -0.0477685 0.0198865 19.9967 -0.0552417 0.0183865 20.0037 -0.0535385
0.00700831 19.8526 -0.0248777 0.0176966 19.8514 -0.0216281 0.0141564 20.0059 -0.0532451 0.00193226
19.8537 -0.0201956 0.00968712 20.0044 -0.0524096 0.000560884 19.8528 -0.0185127 0.00880972 20.0026
-0.0515727 3.34592e-05 19.8515 -0.0169348 0.00853052 20.0011 -0.0507975 -0.000244811 19.8504 -0.0155782
0.00831584 19.9995 -0.0501006 -0.000426069 19.8493 -0.014399 0.00811421 19.9979 -0.0494334 -0.000554783
19.8482 -0.0133259 0.00793434 19.9962 -0.0487798 -0.000658224 19.8472 -0.0123524 0.00773957 19.9946
-0.0481434 -0.000700813 19.8462 -0.011463 0.0076507 19.9926 -0.0474892 -0.000800164 19.8451 -0.0105317
0.00737035 19.8447 -0.0100485 0.00706755 19.9923 -0.0472823 -0.000846902 19.9996 -0.000344487 3.12772e-05
20 0 0 20 0 0 19.9996 -0.000344582 7.86716e-05 19.9983
-0.000795317 9.39049e-05 19.9984 -0.000805078 0.000278825 19.9942 -0.001566 0.00036823 19.9941 -0.00153059
0.00100037 19.9788 -0.00282893 0.000336106 19.9795 -0.00315187 0.00358025 19.9464 -0.00551821 -0.00905321
19.9362 -0.00627344 -0.00795067 19.9389 0.0022215 -0.014314 19.9276 -0.00554446 -0.0294972 19.906
0.00514634 -0.0609921 20.2332 -0.0731253 0.00178496 20.0483 -0.0290891 -0.056678 20.2353 -0.0722083
0.00504095 19.9271 -0.0900647 0.0306888 20.025 -0.119634 0.0820143 20.2327 -0.0870081 0.0650088
19.8545 -0.0301342 0.0234237 19.3057 0.121103 0.0100273 19.3379 0.118529 0.0111425 19.366
0.112767 0.0112034 19.3873 0.108468 0.0119034 19.4057 0.104674 0.0124265 19.4228 0.101064
0.0126217 19.4389 0.0976445 0.0126437 19.454 0.0944218 0.0125851 19.4683 0.0913478 0.0124565
19.4815 0.0884444 0.0123517 19.4963 0.0855923 0.0120768 19.5051 0.0841156 0.0118204 20
0 0 19.9996 -0.000345184 0.000137358 19.9985 -0.000803636 0.000490608 19.9945 -0.00153651
0.00172053 19.98 -0.00327441 0.00603859 19.9197 -0.00883545 0.0107639 19.9194 -0.00800065 0.00102533
19.8499 -0.0166903 -0.0957344 19.7932 -0.0206315 -0.0681182 19.9551 -0.0513899 -1.02396 20.4345
-0.0682875 -0.935067 20.2157 -0.0537586 -0.509463 19.9302 -0.0560584 -0.635869 20.3105 -0.165079
0.453592 20.3109 -0.165968 0.457057 20.1011 -0.251708 0.582441 19.9909 -0.240785 0.301144